
    -----------------------------------------------------------------------
          Psi4: An Open-Source Ab Initio Electronic Structure Package
                               Psi4 1.4a2.dev629 

                         Git: Rev {master} 2938fc2 dirty


    D. G. A. Smith, L. A. Burns, A. C. Simmonett, R. M. Parrish,
    M. C. Schieber, R. Galvelis, P. Kraus, H. Kruse, R. Di Remigio,
    A. Alenaizan, A. M. James, S. Lehtola, J. P. Misiewicz, M. Scheurer,
    R. A. Shaw, J. B. Schriber, Y. Xie, Z. L. Glick, D. A. Sirianni,
    J. S. O'Brien, J. M. Waldrop, A. Kumar, E. G. Hohenstein,
    B. P. Pritchard, B. R. Brooks, H. F. Schaefer III, A. Yu. Sokolov,
    K. Patkowski, A. E. DePrince III, U. Bozkaya, R. A. King,
    F. A. Evangelista, J. M. Turney, T. D. Crawford, C. D. Sherrill,
    J. Chem. Phys. 152(18) 184108 (2020). https://doi.org/10.1063/5.0006002

                            Additional Code Authors
    E. T. Seidl, C. L. Janssen, E. F. Valeev, M. L. Leininger,
    J. F. Gonthier, R. M. Richard, H. R. McAlexander, M. Saitow, X. Wang,
    P. Verma, and M. H. Lechner

             Previous Authors, Complete List of Code Contributors,
                       and Citations for Specific Modules
    https://github.com/psi4/psi4/blob/master/codemeta.json
    https://github.com/psi4/psi4/graphs/contributors
    http://psicode.org/psi4manual/master/introduction.html#citing-psifour

    -----------------------------------------------------------------------


    Psi4 started on: Monday, 28 June 2021 05:41PM

    Process ID: 19912
    Host:       n093
    PSIDATADIR: /opt/psi/4/master/share/psi4
    Memory:     500.0 MiB
    Threads:    12
    
  ==> Input File <==

--------------------------------------------------------------------------
import psi4
import time

# Basic options trying to be uniform

psi4.set_num_threads(12)
psi4.set_memory('500 GB')
psi4.set_options({"basis" : "cc-pvdz",
                  "scf_type" : "pk",
                  "mp2_type" : "conv",
                  "puream" : True,
                  "e_convergence" : 1e-8,
                  "d_convergence" : 1e-8})

times = []
for i in range(1,23):

    # Read in xyz file
    molstring = open("../../xyz/S22-{}-dimer.xyz".format(i), "r").read()

    # Remove first two lines from xyz and add symmetry
    molstring = str(molstring.split("\n",2)[2]) + "\nsymmetry c1"
    mol = psi4.geometry(molstring)

    # Run energy compt
    t = time.time()
    psi4.energy("mp2", molecule=mol)
    psi4.core.clean()

    # Print out time
    psi4.core.print_out("@@@ Total Run Time: {}".format(time.time() - t))



    

    
--------------------------------------------------------------------------
  Threads set to 12 by Python driver.

  Memory set to 465.661 GiB by Python driver.

Scratch directory: /tmp/

*** tstart() called on n093
*** at Mon Jun 28 17:41:03 2021

   => Loading Basis Set <=

    Name: CC-PVDZ
    Role: ORBITAL
    Keyword: BASIS
    atoms 1, 5     entry N          line   168 file /opt/psi/4/master/share/psi4/basis/cc-pvdz.gbs 
    atoms 2-4, 6-8 entry H          line    22 file /opt/psi/4/master/share/psi4/basis/cc-pvdz.gbs 


         ---------------------------------------------------------
                                   SCF
               by Justin Turney, Rob Parrish, Andy Simmonett
                          and Daniel G. A. Smith
                              RHF Reference
                       12 Threads, 476837 MiB Core
         ---------------------------------------------------------

  ==> Geometry <==

    Molecular point group: c1
    Full point group: C2h

    Geometry (in Angstrom), charge = 0, multiplicity = 1:

       Center              X                  Y                   Z               Mass       
    ------------   -----------------  -----------------  -----------------  -----------------
         N           -1.578718000000    -0.046611000000     0.000000000000    14.003074004430
         H           -2.158621000000     0.136396000000    -0.809565000000     1.007825032230
         H           -2.158621000000     0.136396000000     0.809565000000     1.007825032230
         H           -0.849471000000     0.658193000000     0.000000000000     1.007825032230
         N            1.578718000000     0.046611000000     0.000000000000    14.003074004430
         H            2.158621000000    -0.136396000000    -0.809565000000     1.007825032230
         H            0.849471000000    -0.658193000000     0.000000000000     1.007825032230
         H            2.158621000000    -0.136396000000     0.809565000000     1.007825032230

  Running in c1 symmetry.

  Rotational constants: A =      4.61798  B =      0.18515  C =      0.18189 [cm^-1]
  Rotational constants: A = 138443.46063  B =   5550.61948  C =   5452.77663 [MHz]
  Nuclear repulsion =   40.314239997527565

  Charge       = 0
  Multiplicity = 1
  Electrons    = 20
  Nalpha       = 10
  Nbeta        = 10

  ==> Algorithm <==

  SCF Algorithm Type is PK.
  DIIS enabled.
  MOM disabled.
  Fractional occupation disabled.
  Guess Type is SAD.
  Energy threshold   = 1.00e-08
  Density threshold  = 1.00e-08
  Integral threshold = 0.00e+00

  ==> Primary Basis <==

  Basis Set: CC-PVDZ
    Blend: CC-PVDZ
    Number of shells: 30
    Number of basis function: 58
    Number of Cartesian functions: 60
    Spherical Harmonics?: true
    Max angular momentum: 2

  ==> Integral Setup <==

  Using in-core PK algorithm.
   Calculation information:
      Number of atoms:                   8
      Number of AO shells:              30
      Number of primitives:             74
      Number of atomic orbitals:        60
      Number of basis functions:        58

      Integral cutoff                 1.00e-12
      Number of threads:                12

  Performing in-core PK
  Using 2929232 doubles for integral storage.
  We computed 168470 shell quartets total.
  Whereas there are 108345 unique shell quartets.
    55.49 percent of shell quartets recomputed by reordering.

  ==> DiskJK: Disk-Based J/K Matrices <==

    J tasked:                  Yes
    K tasked:                  Yes
    wK tasked:                  No
    Memory [MiB]:           357627
    Schwarz Cutoff:          1E-12

    OpenMP threads:             12

  Minimum eigenvalue in the overlap matrix is 2.6780377816E-02.
  Reciprocal condition number of the overlap matrix is 5.7492214108E-03.
    Using symmetric orthogonalization.

  ==> Pre-Iterations <==

  SCF Guess: Superposition of Atomic Densities via on-the-fly atomic UHF (no occupation information).

   -------------------------
    Irrep   Nso     Nmo    
   -------------------------
     A         58      58 
   -------------------------
    Total      58      58
   -------------------------

  ==> Iterations <==

                        Total Energy        Delta E     RMS |[F,P]|

   @RHF iter SAD:  -111.43728983181444   -1.11437e+02   0.00000e+00 
   @RHF iter   1:  -112.25059856459706   -8.13309e-01   9.37047e-03 DIIS
   @RHF iter   2:  -112.36437570382979   -1.13777e-01   4.73283e-03 DIIS
   @RHF iter   3:  -112.39519176259839   -3.08161e-02   5.59493e-04 DIIS
   @RHF iter   4:  -112.39622016791900   -1.02841e-03   8.83260e-05 DIIS
   @RHF iter   5:  -112.39624117916235   -2.10112e-05   1.77780e-05 DIIS
   @RHF iter   6:  -112.39624269495221   -1.51579e-06   3.84871e-06 DIIS
   @RHF iter   7:  -112.39624279473158   -9.97794e-08   7.65175e-07 DIIS
   @RHF iter   8:  -112.39624279860938   -3.87780e-09   2.01984e-07 DIIS
   @RHF iter   9:  -112.39624279885673   -2.47354e-10   5.00786e-08 DIIS
   @RHF iter  10:  -112.39624279887035   -1.36140e-11   5.53408e-09 DIIS
  Energy and wave function converged.


  ==> Post-Iterations <==

    Orbital Energies [Eh]
    ---------------------

    Doubly Occupied:                                                      

       1A    -15.531191     2A    -15.531188     3A     -1.130974  
       4A     -1.123152     5A     -0.628199     6A     -0.612324  
       7A     -0.610086     8A     -0.592879     9A     -0.417936  
      10A     -0.413618  

    Virtual:                                                              

      11A      0.183485    12A      0.216607    13A      0.271444  
      14A      0.276500    15A      0.301501    16A      0.330489  
      17A      0.704803    18A      0.747960    19A      0.755460  
      20A      0.761972    21A      0.894555    22A      0.896347  
      23A      0.991705    24A      1.055314    25A      1.056597  
      26A      1.076390    27A      1.101939    28A      1.113948  
      29A      1.285559    30A      1.321410    31A      1.328015  
      32A      1.352064    33A      1.482565    34A      1.491636  
      35A      1.767970    36A      1.776732    37A      1.916055  
      38A      1.923295    39A      1.959822    40A      1.961004  
      41A      1.974402    42A      2.046907    43A      2.309686  
      44A      2.315000    45A      2.326060    46A      2.335445  
      47A      2.560660    48A      2.601521    49A      2.816377  
      50A      2.825662    51A      2.844594    52A      2.878089  
      53A      2.982995    54A      2.986875    55A      3.293592  
      56A      3.320825    57A      3.350350    58A      3.367107  

    Final Occupation by Irrep:
              A 
    DOCC [    10 ]

  @RHF Final Energy:  -112.39624279887035

   => Energetics <=

    Nuclear Repulsion Energy =             40.3142399975275652
    One-Electron Energy =                -232.2378721604324596
    Two-Electron Energy =                  79.5273893640345335
    Total Energy =                       -112.3962427988703467

Computation Completed


Properties will be evaluated at   0.000000,   0.000000,   0.000000 [a0]

Properties computed using the SCF density matrix

  Nuclear Dipole Moment: [e a0]
     X:    -0.0000      Y:     0.0000      Z:     0.0000

  Electronic Dipole Moment: [e a0]
     X:    -0.0000      Y:     0.0000      Z:    -0.0000

  Dipole Moment: [e a0]
     X:    -0.0000      Y:     0.0000      Z:    -0.0000     Total:     0.0000

  Dipole Moment: [D]
     X:    -0.0000      Y:     0.0000      Z:    -0.0000     Total:     0.0000


*** tstop() called on n093 at Mon Jun 28 17:41:04 2021
Module time:
	user time   =       6.48 seconds =       0.11 minutes
	system time =       0.12 seconds =       0.00 minutes
	total time  =          1 seconds =       0.02 minutes
Total time:
	user time   =       6.48 seconds =       0.11 minutes
	system time =       0.12 seconds =       0.00 minutes
	total time  =          1 seconds =       0.02 minutes
 MINTS: Wrapper to libmints.
   by Justin Turney

   Calculation information:
      Number of threads:                12
      Number of atoms:                   8
      Number of AO shells:              30
      Number of SO shells:              30
      Number of primitives:             74
      Number of atomic orbitals:        60
      Number of basis functions:        58

      Number of irreps:                  1
      Integral cutoff                 0.00e+00
      Number of functions per irrep: [  58 ]

 OEINTS: Overlap, kinetic, potential, dipole, and quadrupole integrals
         stored in file 35.

      Computing two-electron integrals...done
      Computed 1324025 non-zero two-electron integrals.
        Stored in file 33.


*** tstart() called on n093
*** at Mon Jun 28 17:41:04 2021



  Module OCC Options:
  ----------------------------------------------------------------------------
  ACTIVE                        => (empty)          
  BASIS_RELATIVISTIC            => (empty)          
  BENCH                         => (empty)          
  CACHELEVEL                    => (empty)          
  CCL_ENERGY                    => (empty)          
  CC_DIIS_MAX_VECS              => (empty)          
  CC_DIIS_MIN_VECS              => (empty)          
  CC_MAXITER                    => (empty)          
  CC_TYPE                       => (empty)          
  CEPA_OS_SCALE                 => (empty)          
  CEPA_SOS_SCALE                => (empty)          
  CEPA_SS_SCALE                 => (empty)          
  CEPA_TYPE                     => (empty)          
  CI_TYPE                       => (empty)          
  CUBEPROP_BASIS_FUNCTIONS      => (empty)          
  CUBEPROP_FILEPATH             => (empty)          
  CUBEPROP_ISOCONTOUR_THRESHOLD => (empty)          
  CUBEPROP_ORBITALS             => (empty)          
  CUBEPROP_TASKS                => (empty)          
  CUBIC_BASIS_TOLERANCE         => (empty)          
  CUBIC_BLOCK_MAX_POINTS        => (empty)          
  CUBIC_GRID_OVERAGE            => (empty)          
  CUBIC_GRID_SPACING            => (empty)          
  CUTOFF                        => (empty)          
  DEBUG                         => (empty)          
  DERTYPE                       => (empty)          
  DF_BASIS_CC                   => (empty)          
  DIE_IF_NOT_CONVERGED          => (empty)          
  DIIS_MAX_VECS                 => (empty)          
  DIIS_MIN_VECS                 => (empty)          
  DKH_ORDER                     => (empty)          
  DOCC                          => (empty)          
  DO_DIIS                       => (empty)          
  DO_LEVEL_SHIFT                => (empty)          
  DO_SCS                        => (empty)          
  DO_SOS                        => (empty)          
  E3_SCALE                      => (empty)          
  EA_POLES                      => (empty)          
  EKT_EA                        => (empty)          
  EKT_IP                        => (empty)          
  EP_EA_POLES                   => (empty)          
  EP_IP_POLES                   => (empty)          
  EP_MAXITER                    => (empty)          
  EXTERNAL_POTENTIAL_SYMMETRY   => (empty)          
  E_CONVERGENCE                 => 1e-08           !
  FREEZE_CORE                   => (empty)          
  FROZEN_DOCC                   => (empty)          
  FROZEN_UOCC                   => (empty)          
  INTEGRAL_PACKAGE              => (empty)          
  IP_POLES                      => (empty)          
  LEVEL_SHIFT                   => (empty)          
  LINEQ_SOLVER                  => (empty)          
  LITERAL_CFOUR                 => (empty)          
  MAT_NUM_COLUMN_PRINT          => (empty)          
  MAX_MOGRAD_CONVERGENCE        => (empty)          
  MOGRAD_DAMPING                => (empty)          
  MOLDEN_WITH_VIRTUAL           => (empty)          
  MO_DIIS_NUM_VECS              => (empty)          
  MO_MAXITER                    => (empty)          
  MO_READ                       => (empty)          
  MO_STEP_MAX                   => (empty)          
  MO_WRITE                      => (empty)          
  MP2_OS_SCALE                  => (empty)          
  MP2_SOS_SCALE                 => (empty)          
  MP2_SOS_SCALE2                => (empty)          
  MP2_SS_SCALE                  => (empty)          
  MP2_TYPE                      => CONV            !
  MP_TYPE                       => (empty)          
  NAT_ORBS                      => (empty)          
  NUM_FROZEN_DOCC               => (empty)          
  NUM_FROZEN_UOCC               => (empty)          
  NUM_GPUS                      => (empty)          
  OCC_ORBS_PRINT                => (empty)          
  OEPROP                        => (empty)          
  OPT_METHOD                    => (empty)          
  ORB_OPT                       => FALSE           !
  ORB_RESP_SOLVER               => (empty)          
  ORTH_TYPE                     => (empty)          
  OS_SCALE                      => (empty)          
  PARENT_SYMMETRY               => (empty)          
  PCG_BETA_TYPE                 => (empty)          
  PCG_CONVERGENCE               => (empty)          
  PCG_MAXITER                   => (empty)          
  PCM                           => (empty)          
  PE                            => (empty)          
  PRINT                         => (empty)          
  PRINT_NOONS                   => (empty)          
  PROPERTIES                    => (empty)          
  PROPERTIES_ORIGIN             => (empty)          
  PUREAM                        => TRUE            !
  QC_MODULE                     => (empty)          
  RAS1                          => (empty)          
  RAS2                          => (empty)          
  RAS3                          => (empty)          
  RAS4                          => (empty)          
  RELATIVISTIC                  => (empty)          
  RELAXED                       => (empty)          
  RESTRICTED_DOCC               => (empty)          
  RESTRICTED_UOCC               => (empty)          
  RMS_MOGRAD_CONVERGENCE        => (empty)          
  R_CONVERGENCE                 => (empty)          
  SCF_TYPE                      => PK              !
  SCS_TYPE                      => (empty)          
  SOCC                          => (empty)          
  SOS_TYPE                      => (empty)          
  SPIN_SCALE_TYPE               => NONE            !
  SS_SCALE                      => (empty)          
  SYMMETRIZE                    => (empty)          
  TPDM_ABCD_TYPE                => (empty)          
  WFN                           => (empty)          
  WFN_TYPE                      => OMP2            !
  WRITER_FILE_LABEL             => (empty)          


 ============================================================================== 
 ============================================================================== 
 ============================================================================== 

                             MP2   
                    Program Written by Ugur Bozkaya,
              Additional Contributions by J. P. Misiewicz

 ============================================================================== 
 ============================================================================== 
 ============================================================================== 

	MO spaces per irreps... 

	IRREP   FC    OCC   VIR  FV 
	==============================
	   A     0    10    48    0
	==============================

	Memory is 500000 MB 
	Cost of iabc is      8 MB 
	Cost of abcd is     40 MB 
	Switching to the incore algorithm for iabc..
	Switching to the incore algorithm for abcd..

	Computing MP2 energy using SCF MOs (Canonical MP2)... 
	============================================================================== 
	Nuclear Repulsion Energy (a.u.)    :    40.31423999752757
	SCF Energy (a.u.)                  :  -112.39624279887035
	REF Energy (a.u.)                  :  -112.39624279887035
	Alpha-Alpha Contribution (a.u.)    :    -0.04401196772506
	Alpha-Beta Contribution (a.u.)     :    -0.29284604306550
	Beta-Beta Contribution (a.u.)      :    -0.04401196772506
	Scaled_SS Correlation Energy (a.u.):    -0.02934131181671
	Scaled_OS Correlation Energy (a.u.):    -0.35141525167860
	SCS-MP2 Total Energy (a.u.)        :  -112.77699936236567
	SOS-MP2 Total Energy (a.u.)        :  -112.74765805054895
	SCSN-MP2 Total Energy (a.u.)       :  -112.55116492526257
	SCS-MP2-VDW Total Energy (a.u.)    :  -112.81509770171924
	SOS-PI-MP2 Total Energy (a.u.)     :  -112.80622725916204
	MP2 Correlation Energy (a.u.)      :    -0.38086997851562
	MP2 Total Energy (a.u.)            :  -112.77711277738597
	============================================================================== 


*** tstop() called on n093 at Mon Jun 28 17:41:05 2021
Module time:
	user time   =       3.32 seconds =       0.06 minutes
	system time =       0.15 seconds =       0.00 minutes
	total time  =          1 seconds =       0.02 minutes
Total time:
	user time   =      11.86 seconds =       0.20 minutes
	system time =       0.32 seconds =       0.01 minutes
	total time  =          2 seconds =       0.03 minutes
@@@ Total Run Time: 1.6784417629241943
Scratch directory: /tmp/

*** tstart() called on n093
*** at Mon Jun 28 17:41:05 2021

   => Loading Basis Set <=

    Name: CC-PVDZ
    Role: ORBITAL
    Keyword: BASIS
    atoms 1, 4     entry O          line   198 file /opt/psi/4/master/share/psi4/basis/cc-pvdz.gbs 
    atoms 2-3, 5-6 entry H          line    22 file /opt/psi/4/master/share/psi4/basis/cc-pvdz.gbs 


         ---------------------------------------------------------
                                   SCF
               by Justin Turney, Rob Parrish, Andy Simmonett
                          and Daniel G. A. Smith
                              RHF Reference
                       12 Threads, 476837 MiB Core
         ---------------------------------------------------------

  ==> Geometry <==

    Molecular point group: c1
    Full point group: Cs

    Geometry (in Angstrom), charge = 0, multiplicity = 1:

       Center              X                  Y                   Z               Mass       
    ------------   -----------------  -----------------  -----------------  -----------------
         O           -1.485163346101    -0.114724564047     0.000000000000    15.994914619570
         H           -1.868415346101     0.762298435953     0.000000000000     1.007825032230
         H           -0.533833346101     0.040507435953     0.000000000000     1.007825032230
         O            1.416468653899     0.111264435953     0.000000000000    15.994914619570
         H            1.746241653899    -0.373945564047    -0.758561000000     1.007825032230
         H            1.746241653899    -0.373945564047     0.758561000000     1.007825032230

  Running in c1 symmetry.

  Rotational constants: A =      7.15151  B =      0.21457  C =      0.21447 [cm^-1]
  Rotational constants: A = 214396.91837  B =   6432.69061  C =   6429.61818 [MHz]
  Nuclear repulsion =   36.662847996863405

  Charge       = 0
  Multiplicity = 1
  Electrons    = 20
  Nalpha       = 10
  Nbeta        = 10

  ==> Algorithm <==

  SCF Algorithm Type is PK.
  DIIS enabled.
  MOM disabled.
  Fractional occupation disabled.
  Guess Type is SAD.
  Energy threshold   = 1.00e-08
  Density threshold  = 1.00e-08
  Integral threshold = 0.00e+00

  ==> Primary Basis <==

  Basis Set: CC-PVDZ
    Blend: CC-PVDZ
    Number of shells: 24
    Number of basis function: 48
    Number of Cartesian functions: 50
    Spherical Harmonics?: true
    Max angular momentum: 2

  ==> Integral Setup <==

  Using in-core PK algorithm.
   Calculation information:
      Number of atoms:                   6
      Number of AO shells:              24
      Number of primitives:             64
      Number of atomic orbitals:        50
      Number of basis functions:        48

      Integral cutoff                 1.00e-12
      Number of threads:                12

  Performing in-core PK
  Using 1384152 doubles for integral storage.
  We computed 81989 shell quartets total.
  Whereas there are 45150 unique shell quartets.
    81.59 percent of shell quartets recomputed by reordering.

  ==> DiskJK: Disk-Based J/K Matrices <==

    J tasked:                  Yes
    K tasked:                  Yes
    wK tasked:                  No
    Memory [MiB]:           357627
    Schwarz Cutoff:          1E-12

    OpenMP threads:             12

  Minimum eigenvalue in the overlap matrix is 3.0512226358E-02.
  Reciprocal condition number of the overlap matrix is 7.7055058080E-03.
    Using symmetric orthogonalization.

  ==> Pre-Iterations <==

  SCF Guess: Superposition of Atomic Densities via on-the-fly atomic UHF (no occupation information).

   -------------------------
    Irrep   Nso     Nmo    
   -------------------------
     A         48      48 
   -------------------------
    Total      48      48
   -------------------------

  ==> Iterations <==

                        Total Energy        Delta E     RMS |[F,P]|

   @RHF iter SAD:  -151.07608559403039   -1.51076e+02   0.00000e+00 
   @RHF iter   1:  -151.92963138159803   -8.53546e-01   1.17860e-02 DIIS
   @RHF iter   2:  -152.02824431249604   -9.86129e-02   6.57653e-03 DIIS
   @RHF iter   3:  -152.06171528134311   -3.34710e-02   6.36019e-04 DIIS
   @RHF iter   4:  -152.06249452962339   -7.79248e-04   1.44051e-04 DIIS
   @RHF iter   5:  -152.06253325572141   -3.87261e-05   3.72003e-05 DIIS
   @RHF iter   6:  -152.06253589128823   -2.63557e-06   1.56755e-05 DIIS
   @RHF iter   7:  -152.06253623246491   -3.41177e-07   2.55051e-06 DIIS
   @RHF iter   8:  -152.06253624915820   -1.66933e-08   3.65692e-07 DIIS
   @RHF iter   9:  -152.06253624955909   -4.00888e-10   8.27704e-08 DIIS
   @RHF iter  10:  -152.06253624957998   -2.08900e-11   1.65592e-08 DIIS
   @RHF iter  11:  -152.06253624958106   -1.08002e-12   2.74650e-09 DIIS
  Energy and wave function converged.


  ==> Post-Iterations <==

    Orbital Energies [Eh]
    ---------------------

    Doubly Occupied:                                                      

       1A    -20.584144     2A    -20.516107     3A     -1.369039  
       4A     -1.303694     5A     -0.729719     6A     -0.674428  
       7A     -0.600394     8A     -0.543222     9A     -0.514817  
      10A     -0.462408  

    Virtual:                                                              

      11A      0.163879    12A      0.231471    13A      0.240261  
      14A      0.380330    15A      0.759537    16A      0.808167  
      17A      0.844216    18A      0.866697    19A      1.125909  
      20A      1.200730    21A      1.206142    22A      1.237278  
      23A      1.271344    24A      1.318119    25A      1.448512  
      26A      1.449400    27A      1.494317    28A      1.518864  
      29A      1.693964    30A      1.705964    31A      1.807157  
      32A      1.922982    33A      1.971061    34A      2.044033  
      35A      2.422339    36A      2.451527    37A      2.501419  
      38A      2.728134    39A      3.251102    40A      3.297103  
      41A      3.320823    42A      3.369774    43A      3.485241  
      44A      3.543421    45A      3.843158    46A      3.904370  
      47A      4.123243    48A      4.192306  

    Final Occupation by Irrep:
              A 
    DOCC [    10 ]

  @RHF Final Energy:  -152.06253624958106

   => Energetics <=

    Nuclear Repulsion Energy =             36.6628479968634053
    One-Electron Energy =                -282.8548228174971655
    Two-Electron Energy =                  94.1294385710527166
    Total Energy =                       -152.0625362495810577

Computation Completed


Properties will be evaluated at   0.000000,   0.000000,   0.000000 [a0]

Properties computed using the SCF density matrix

  Nuclear Dipole Moment: [e a0]
     X:     1.0217      Y:     0.0515      Z:     0.0000

  Electronic Dipole Moment: [e a0]
     X:     0.0531      Y:    -0.0217      Z:     0.0000

  Dipole Moment: [e a0]
     X:     1.0748      Y:     0.0298      Z:     0.0000     Total:     1.0752

  Dipole Moment: [D]
     X:     2.7319      Y:     0.0756      Z:     0.0000     Total:     2.7330


*** tstop() called on n093 at Mon Jun 28 17:41:05 2021
Module time:
	user time   =       6.98 seconds =       0.12 minutes
	system time =       0.26 seconds =       0.00 minutes
	total time  =          0 seconds =       0.00 minutes
Total time:
	user time   =      19.00 seconds =       0.32 minutes
	system time =       0.58 seconds =       0.01 minutes
	total time  =          2 seconds =       0.03 minutes
 MINTS: Wrapper to libmints.
   by Justin Turney

   Calculation information:
      Number of threads:                12
      Number of atoms:                   6
      Number of AO shells:              24
      Number of SO shells:              24
      Number of primitives:             64
      Number of atomic orbitals:        50
      Number of basis functions:        48

      Number of irreps:                  1
      Integral cutoff                 0.00e+00
      Number of functions per irrep: [  48 ]

 OEINTS: Overlap, kinetic, potential, dipole, and quadrupole integrals
         stored in file 35.

      Computing two-electron integrals...done
      Computed 557476 non-zero two-electron integrals.
        Stored in file 33.


*** tstart() called on n093
*** at Mon Jun 28 17:41:06 2021



  Module OCC Options:
  ----------------------------------------------------------------------------
  ACTIVE                        => (empty)          
  BASIS_RELATIVISTIC            => (empty)          
  BENCH                         => (empty)          
  CACHELEVEL                    => (empty)          
  CCL_ENERGY                    => (empty)          
  CC_DIIS_MAX_VECS              => (empty)          
  CC_DIIS_MIN_VECS              => (empty)          
  CC_MAXITER                    => (empty)          
  CC_TYPE                       => (empty)          
  CEPA_OS_SCALE                 => (empty)          
  CEPA_SOS_SCALE                => (empty)          
  CEPA_SS_SCALE                 => (empty)          
  CEPA_TYPE                     => (empty)          
  CI_TYPE                       => (empty)          
  CUBEPROP_BASIS_FUNCTIONS      => (empty)          
  CUBEPROP_FILEPATH             => (empty)          
  CUBEPROP_ISOCONTOUR_THRESHOLD => (empty)          
  CUBEPROP_ORBITALS             => (empty)          
  CUBEPROP_TASKS                => (empty)          
  CUBIC_BASIS_TOLERANCE         => (empty)          
  CUBIC_BLOCK_MAX_POINTS        => (empty)          
  CUBIC_GRID_OVERAGE            => (empty)          
  CUBIC_GRID_SPACING            => (empty)          
  CUTOFF                        => (empty)          
  DEBUG                         => (empty)          
  DERTYPE                       => (empty)          
  DF_BASIS_CC                   => (empty)          
  DIE_IF_NOT_CONVERGED          => (empty)          
  DIIS_MAX_VECS                 => (empty)          
  DIIS_MIN_VECS                 => (empty)          
  DKH_ORDER                     => (empty)          
  DOCC                          => (empty)          
  DO_DIIS                       => (empty)          
  DO_LEVEL_SHIFT                => (empty)          
  DO_SCS                        => (empty)          
  DO_SOS                        => (empty)          
  E3_SCALE                      => (empty)          
  EA_POLES                      => (empty)          
  EKT_EA                        => (empty)          
  EKT_IP                        => (empty)          
  EP_EA_POLES                   => (empty)          
  EP_IP_POLES                   => (empty)          
  EP_MAXITER                    => (empty)          
  EXTERNAL_POTENTIAL_SYMMETRY   => (empty)          
  E_CONVERGENCE                 => 1e-08           !
  FREEZE_CORE                   => (empty)          
  FROZEN_DOCC                   => (empty)          
  FROZEN_UOCC                   => (empty)          
  INTEGRAL_PACKAGE              => (empty)          
  IP_POLES                      => (empty)          
  LEVEL_SHIFT                   => (empty)          
  LINEQ_SOLVER                  => (empty)          
  LITERAL_CFOUR                 => (empty)          
  MAT_NUM_COLUMN_PRINT          => (empty)          
  MAX_MOGRAD_CONVERGENCE        => (empty)          
  MOGRAD_DAMPING                => (empty)          
  MOLDEN_WITH_VIRTUAL           => (empty)          
  MO_DIIS_NUM_VECS              => (empty)          
  MO_MAXITER                    => (empty)          
  MO_READ                       => (empty)          
  MO_STEP_MAX                   => (empty)          
  MO_WRITE                      => (empty)          
  MP2_OS_SCALE                  => (empty)          
  MP2_SOS_SCALE                 => (empty)          
  MP2_SOS_SCALE2                => (empty)          
  MP2_SS_SCALE                  => (empty)          
  MP2_TYPE                      => CONV            !
  MP_TYPE                       => (empty)          
  NAT_ORBS                      => (empty)          
  NUM_FROZEN_DOCC               => (empty)          
  NUM_FROZEN_UOCC               => (empty)          
  NUM_GPUS                      => (empty)          
  OCC_ORBS_PRINT                => (empty)          
  OEPROP                        => (empty)          
  OPT_METHOD                    => (empty)          
  ORB_OPT                       => FALSE           !
  ORB_RESP_SOLVER               => (empty)          
  ORTH_TYPE                     => (empty)          
  OS_SCALE                      => (empty)          
  PARENT_SYMMETRY               => (empty)          
  PCG_BETA_TYPE                 => (empty)          
  PCG_CONVERGENCE               => (empty)          
  PCG_MAXITER                   => (empty)          
  PCM                           => (empty)          
  PE                            => (empty)          
  PRINT                         => (empty)          
  PRINT_NOONS                   => (empty)          
  PROPERTIES                    => (empty)          
  PROPERTIES_ORIGIN             => (empty)          
  PUREAM                        => TRUE            !
  QC_MODULE                     => (empty)          
  RAS1                          => (empty)          
  RAS2                          => (empty)          
  RAS3                          => (empty)          
  RAS4                          => (empty)          
  RELATIVISTIC                  => (empty)          
  RELAXED                       => (empty)          
  RESTRICTED_DOCC               => (empty)          
  RESTRICTED_UOCC               => (empty)          
  RMS_MOGRAD_CONVERGENCE        => (empty)          
  R_CONVERGENCE                 => (empty)          
  SCF_TYPE                      => PK              !
  SCS_TYPE                      => (empty)          
  SOCC                          => (empty)          
  SOS_TYPE                      => (empty)          
  SPIN_SCALE_TYPE               => NONE            !
  SS_SCALE                      => (empty)          
  SYMMETRIZE                    => (empty)          
  TPDM_ABCD_TYPE                => (empty)          
  WFN                           => (empty)          
  WFN_TYPE                      => OMP2            !
  WRITER_FILE_LABEL             => (empty)          


 ============================================================================== 
 ============================================================================== 
 ============================================================================== 

                             MP2   
                    Program Written by Ugur Bozkaya,
              Additional Contributions by J. P. Misiewicz

 ============================================================================== 
 ============================================================================== 
 ============================================================================== 

	MO spaces per irreps... 

	IRREP   FC    OCC   VIR  FV 
	==============================
	   A     0    10    38    0
	==============================

	Memory is 500000 MB 
	Cost of iabc is      0 MB 
	Cost of abcd is      8 MB 
	Switching to the incore algorithm for iabc..
	Switching to the incore algorithm for abcd..

	Computing MP2 energy using SCF MOs (Canonical MP2)... 
	============================================================================== 
	Nuclear Repulsion Energy (a.u.)    :    36.66284799686341
	SCF Energy (a.u.)                  :  -152.06253624958106
	REF Energy (a.u.)                  :  -152.06253624958106
	Alpha-Alpha Contribution (a.u.)    :    -0.05223958563016
	Alpha-Beta Contribution (a.u.)     :    -0.30641608667796
	Beta-Beta Contribution (a.u.)      :    -0.05223958563016
	Scaled_SS Correlation Energy (a.u.):    -0.03482639042011
	Scaled_OS Correlation Energy (a.u.):    -0.36769930401356
	SCS-MP2 Total Energy (a.u.)        :  -152.46506194401474
	SOS-MP2 Total Energy (a.u.)        :  -152.43023555359463
	SCSN-MP2 Total Energy (a.u.)       :  -152.24641959099921
	SCS-MP2-VDW Total Energy (a.u.)    :  -152.50698842615901
	SOS-PI-MP2 Total Energy (a.u.)     :  -152.49151877093021
	MP2 Correlation Energy (a.u.)      :    -0.41089525793828
	MP2 Total Energy (a.u.)            :  -152.47343150751934
	============================================================================== 


*** tstop() called on n093 at Mon Jun 28 17:41:06 2021
Module time:
	user time   =       1.53 seconds =       0.03 minutes
	system time =       0.08 seconds =       0.00 minutes
	total time  =          0 seconds =       0.00 minutes
Total time:
	user time   =      22.47 seconds =       0.37 minutes
	system time =       0.72 seconds =       0.01 minutes
	total time  =          3 seconds =       0.05 minutes
@@@ Total Run Time: 1.2498188018798828
Scratch directory: /tmp/

*** tstart() called on n093
*** at Mon Jun 28 17:41:06 2021

   => Loading Basis Set <=

    Name: CC-PVDZ
    Role: ORBITAL
    Keyword: BASIS
    atoms 1, 6      entry C          line   138 file /opt/psi/4/master/share/psi4/basis/cc-pvdz.gbs 
    atoms 2-3, 7-8  entry O          line   198 file /opt/psi/4/master/share/psi4/basis/cc-pvdz.gbs 
    atoms 4-5, 9-10 entry H          line    22 file /opt/psi/4/master/share/psi4/basis/cc-pvdz.gbs 


         ---------------------------------------------------------
                                   SCF
               by Justin Turney, Rob Parrish, Andy Simmonett
                          and Daniel G. A. Smith
                              RHF Reference
                       12 Threads, 476837 MiB Core
         ---------------------------------------------------------

  ==> Geometry <==

    Molecular point group: c1
    Full point group: C2h

    Geometry (in Angstrom), charge = 0, multiplicity = 1:

       Center              X                  Y                   Z               Mass       
    ------------   -----------------  -----------------  -----------------  -----------------
         C           -1.888896000000    -0.179692000000     0.000000000000    12.000000000000
         O           -1.493280000000     1.073689000000     0.000000000000    15.994914619570
         O           -1.170435000000    -1.166590000000     0.000000000000    15.994914619570
         H           -2.979488000000    -0.258829000000     0.000000000000     1.007825032230
         H           -0.498833000000     1.107195000000     0.000000000000     1.007825032230
         C            1.888896000000     0.179692000000     0.000000000000    12.000000000000
         O            1.493280000000    -1.073689000000     0.000000000000    15.994914619570
         O            1.170435000000     1.166590000000     0.000000000000    15.994914619570
         H            2.979488000000     0.258829000000     0.000000000000     1.007825032230
         H            0.498833000000    -1.107195000000     0.000000000000     1.007825032230

  Running in c1 symmetry.

  Rotational constants: A =      0.20119  B =      0.07691  C =      0.05564 [cm^-1]
  Rotational constants: A =   6031.63975  B =   2305.67051  C =   1668.04083 [MHz]
  Nuclear repulsion =  235.946621242488220

  Charge       = 0
  Multiplicity = 1
  Electrons    = 48
  Nalpha       = 24
  Nbeta        = 24

  ==> Algorithm <==

  SCF Algorithm Type is PK.
  DIIS enabled.
  MOM disabled.
  Fractional occupation disabled.
  Guess Type is SAD.
  Energy threshold   = 1.00e-08
  Density threshold  = 1.00e-08
  Integral threshold = 0.00e+00

  ==> Primary Basis <==

  Basis Set: CC-PVDZ
    Blend: CC-PVDZ
    Number of shells: 48
    Number of basis function: 104
    Number of Cartesian functions: 110
    Spherical Harmonics?: true
    Max angular momentum: 2

  ==> Integral Setup <==

  Using in-core PK algorithm.
   Calculation information:
      Number of atoms:                  10
      Number of AO shells:              48
      Number of primitives:            152
      Number of atomic orbitals:       110
      Number of basis functions:       104

      Integral cutoff                 1.00e-12
      Number of threads:                12

  Performing in-core PK
  Using 29817060 doubles for integral storage.
  We computed 887643 shell quartets total.
  Whereas there are 692076 unique shell quartets.
    28.26 percent of shell quartets recomputed by reordering.

  ==> DiskJK: Disk-Based J/K Matrices <==

    J tasked:                  Yes
    K tasked:                  Yes
    wK tasked:                  No
    Memory [MiB]:           357627
    Schwarz Cutoff:          1E-12

    OpenMP threads:             12

  Minimum eigenvalue in the overlap matrix is 1.0051868556E-02.
  Reciprocal condition number of the overlap matrix is 2.2348334966E-03.
    Using symmetric orthogonalization.

  ==> Pre-Iterations <==

  SCF Guess: Superposition of Atomic Densities via on-the-fly atomic UHF (no occupation information).

   -------------------------
    Irrep   Nso     Nmo    
   -------------------------
     A        104     104 
   -------------------------
    Total     104     104
   -------------------------

  ==> Iterations <==

                        Total Energy        Delta E     RMS |[F,P]|

   @RHF iter SAD:  -376.24313672900001   -3.76243e+02   0.00000e+00 
   @RHF iter   1:  -377.42292119343006   -1.17978e+00   6.13542e-03 DIIS
   @RHF iter   2:  -377.52857422652778   -1.05653e-01   3.83059e-03 DIIS
   @RHF iter   3:  -377.58436619184738   -5.57920e-02   4.69774e-04 DIIS
   @RHF iter   4:  -377.58591349147139   -1.54730e-03   2.21603e-04 DIIS
   @RHF iter   5:  -377.58619014377427   -2.76652e-04   5.78263e-05 DIIS
   @RHF iter   6:  -377.58624251432707   -5.23706e-05   2.67131e-05 DIIS
   @RHF iter   7:  -377.58625477737621   -1.22630e-05   7.45854e-06 DIIS
   @RHF iter   8:  -377.58625569497099   -9.17595e-07   2.16271e-06 DIIS
   @RHF iter   9:  -377.58625576166520   -6.66942e-08   6.84119e-07 DIIS
   @RHF iter  10:  -377.58625576788035   -6.21515e-09   1.43198e-07 DIIS
   @RHF iter  11:  -377.58625576813984   -2.59490e-10   2.37641e-08 DIIS
   @RHF iter  12:  -377.58625576814757   -7.73070e-12   5.16396e-09 DIIS
  Energy and wave function converged.


  ==> Post-Iterations <==

    Orbital Energies [Eh]
    ---------------------

    Doubly Occupied:                                                      

       1A    -20.613938     2A    -20.613936     3A    -20.575830  
       4A    -20.575830     5A    -11.411845     6A    -11.411844  
       7A     -1.483606     8A     -1.470533     9A     -1.385180  
      10A     -1.370826    11A     -0.915291    12A     -0.878696  
      13A     -0.764497    14A     -0.728869    15A     -0.719911  
      16A     -0.689266    17A     -0.639487    18A     -0.629704  
      19A     -0.615377    20A     -0.574396    21A     -0.499242  
      22A     -0.490130    23A     -0.488287    24A     -0.467779  

    Virtual:                                                              

      25A      0.161351    26A      0.166568    27A      0.204502  
      28A      0.210100    29A      0.290570    30A      0.317595  
      31A      0.426138    32A      0.432264    33A      0.466246  
      34A      0.502024    35A      0.631140    36A      0.658209  
      37A      0.668969    38A      0.712340    39A      0.719924  
      40A      0.742209    41A      0.804390    42A      0.815833  
      43A      0.888879    44A      0.925867    45A      0.929933  
      46A      0.943982    47A      1.136992    48A      1.147800  
      49A      1.177213    50A      1.181279    51A      1.218827  
      52A      1.255110    53A      1.276437    54A      1.283122  
      55A      1.283178    56A      1.347383    57A      1.363211  
      58A      1.378245    59A      1.427915    60A      1.447183  
      61A      1.551449    62A      1.604759    63A      1.627561  
      64A      1.646571    65A      1.673906    66A      1.742515  
      67A      1.757009    68A      1.769120    69A      1.795256  
      70A      1.901426    71A      1.924628    72A      1.962127  
      73A      1.975146    74A      1.986920    75A      2.018751  
      76A      2.094001    77A      2.180779    78A      2.215178  
      79A      2.504674    80A      2.578476    81A      2.620831  
      82A      2.638250    83A      2.673840    84A      2.706179  
      85A      2.938140    86A      2.952328    87A      3.172916  
      88A      3.187939    89A      3.190240    90A      3.219765  
      91A      3.251756    92A      3.277646    93A      3.403850  
      94A      3.500330    95A      3.509801    96A      3.526447  
      97A      3.584835    98A      3.598791    99A      3.812229  
     100A      3.848500   101A      3.875018   102A      3.926699  
     103A      4.144132   104A      4.167658  

    Final Occupation by Irrep:
              A 
    DOCC [    24 ]

  @RHF Final Energy:  -377.58625576814757

   => Energetics <=

    Nuclear Repulsion Energy =            235.9466212424882201
    One-Electron Energy =                -987.0371568817661228
    Two-Electron Energy =                 373.5042798711303931
    Total Energy =                       -377.5862557681475664

Computation Completed


Properties will be evaluated at   0.000000,   0.000000,   0.000000 [a0]

Properties computed using the SCF density matrix

  Nuclear Dipole Moment: [e a0]
     X:     0.0000      Y:     0.0000      Z:     0.0000

  Electronic Dipole Moment: [e a0]
     X:     0.0000      Y:    -0.0000      Z:     0.0000

  Dipole Moment: [e a0]
     X:     0.0000      Y:    -0.0000      Z:     0.0000     Total:     0.0000

  Dipole Moment: [D]
     X:     0.0000      Y:    -0.0000      Z:     0.0000     Total:     0.0000


*** tstop() called on n093 at Mon Jun 28 17:41:09 2021
Module time:
	user time   =      24.23 seconds =       0.40 minutes
	system time =       0.56 seconds =       0.01 minutes
	total time  =          3 seconds =       0.05 minutes
Total time:
	user time   =      46.84 seconds =       0.78 minutes
	system time =       1.29 seconds =       0.02 minutes
	total time  =          6 seconds =       0.10 minutes
 MINTS: Wrapper to libmints.
   by Justin Turney

   Calculation information:
      Number of threads:                12
      Number of atoms:                  10
      Number of AO shells:              48
      Number of SO shells:              48
      Number of primitives:            152
      Number of atomic orbitals:       110
      Number of basis functions:       104

      Number of irreps:                  1
      Integral cutoff                 0.00e+00
      Number of functions per irrep: [ 104 ]

 OEINTS: Overlap, kinetic, potential, dipole, and quadrupole integrals
         stored in file 35.

      Computing two-electron integrals...done
      Computed 7807824 non-zero two-electron integrals.
        Stored in file 33.


*** tstart() called on n093
*** at Mon Jun 28 17:41:13 2021



  Module OCC Options:
  ----------------------------------------------------------------------------
  ACTIVE                        => (empty)          
  BASIS_RELATIVISTIC            => (empty)          
  BENCH                         => (empty)          
  CACHELEVEL                    => (empty)          
  CCL_ENERGY                    => (empty)          
  CC_DIIS_MAX_VECS              => (empty)          
  CC_DIIS_MIN_VECS              => (empty)          
  CC_MAXITER                    => (empty)          
  CC_TYPE                       => (empty)          
  CEPA_OS_SCALE                 => (empty)          
  CEPA_SOS_SCALE                => (empty)          
  CEPA_SS_SCALE                 => (empty)          
  CEPA_TYPE                     => (empty)          
  CI_TYPE                       => (empty)          
  CUBEPROP_BASIS_FUNCTIONS      => (empty)          
  CUBEPROP_FILEPATH             => (empty)          
  CUBEPROP_ISOCONTOUR_THRESHOLD => (empty)          
  CUBEPROP_ORBITALS             => (empty)          
  CUBEPROP_TASKS                => (empty)          
  CUBIC_BASIS_TOLERANCE         => (empty)          
  CUBIC_BLOCK_MAX_POINTS        => (empty)          
  CUBIC_GRID_OVERAGE            => (empty)          
  CUBIC_GRID_SPACING            => (empty)          
  CUTOFF                        => (empty)          
  DEBUG                         => (empty)          
  DERTYPE                       => (empty)          
  DF_BASIS_CC                   => (empty)          
  DIE_IF_NOT_CONVERGED          => (empty)          
  DIIS_MAX_VECS                 => (empty)          
  DIIS_MIN_VECS                 => (empty)          
  DKH_ORDER                     => (empty)          
  DOCC                          => (empty)          
  DO_DIIS                       => (empty)          
  DO_LEVEL_SHIFT                => (empty)          
  DO_SCS                        => (empty)          
  DO_SOS                        => (empty)          
  E3_SCALE                      => (empty)          
  EA_POLES                      => (empty)          
  EKT_EA                        => (empty)          
  EKT_IP                        => (empty)          
  EP_EA_POLES                   => (empty)          
  EP_IP_POLES                   => (empty)          
  EP_MAXITER                    => (empty)          
  EXTERNAL_POTENTIAL_SYMMETRY   => (empty)          
  E_CONVERGENCE                 => 1e-08           !
  FREEZE_CORE                   => (empty)          
  FROZEN_DOCC                   => (empty)          
  FROZEN_UOCC                   => (empty)          
  INTEGRAL_PACKAGE              => (empty)          
  IP_POLES                      => (empty)          
  LEVEL_SHIFT                   => (empty)          
  LINEQ_SOLVER                  => (empty)          
  LITERAL_CFOUR                 => (empty)          
  MAT_NUM_COLUMN_PRINT          => (empty)          
  MAX_MOGRAD_CONVERGENCE        => (empty)          
  MOGRAD_DAMPING                => (empty)          
  MOLDEN_WITH_VIRTUAL           => (empty)          
  MO_DIIS_NUM_VECS              => (empty)          
  MO_MAXITER                    => (empty)          
  MO_READ                       => (empty)          
  MO_STEP_MAX                   => (empty)          
  MO_WRITE                      => (empty)          
  MP2_OS_SCALE                  => (empty)          
  MP2_SOS_SCALE                 => (empty)          
  MP2_SOS_SCALE2                => (empty)          
  MP2_SS_SCALE                  => (empty)          
  MP2_TYPE                      => CONV            !
  MP_TYPE                       => (empty)          
  NAT_ORBS                      => (empty)          
  NUM_FROZEN_DOCC               => (empty)          
  NUM_FROZEN_UOCC               => (empty)          
  NUM_GPUS                      => (empty)          
  OCC_ORBS_PRINT                => (empty)          
  OEPROP                        => (empty)          
  OPT_METHOD                    => (empty)          
  ORB_OPT                       => FALSE           !
  ORB_RESP_SOLVER               => (empty)          
  ORTH_TYPE                     => (empty)          
  OS_SCALE                      => (empty)          
  PARENT_SYMMETRY               => (empty)          
  PCG_BETA_TYPE                 => (empty)          
  PCG_CONVERGENCE               => (empty)          
  PCG_MAXITER                   => (empty)          
  PCM                           => (empty)          
  PE                            => (empty)          
  PRINT                         => (empty)          
  PRINT_NOONS                   => (empty)          
  PROPERTIES                    => (empty)          
  PROPERTIES_ORIGIN             => (empty)          
  PUREAM                        => TRUE            !
  QC_MODULE                     => (empty)          
  RAS1                          => (empty)          
  RAS2                          => (empty)          
  RAS3                          => (empty)          
  RAS4                          => (empty)          
  RELATIVISTIC                  => (empty)          
  RELAXED                       => (empty)          
  RESTRICTED_DOCC               => (empty)          
  RESTRICTED_UOCC               => (empty)          
  RMS_MOGRAD_CONVERGENCE        => (empty)          
  R_CONVERGENCE                 => (empty)          
  SCF_TYPE                      => PK              !
  SCS_TYPE                      => (empty)          
  SOCC                          => (empty)          
  SOS_TYPE                      => (empty)          
  SPIN_SCALE_TYPE               => NONE            !
  SS_SCALE                      => (empty)          
  SYMMETRIZE                    => (empty)          
  TPDM_ABCD_TYPE                => (empty)          
  WFN                           => (empty)          
  WFN_TYPE                      => OMP2            !
  WRITER_FILE_LABEL             => (empty)          


 ============================================================================== 
 ============================================================================== 
 ============================================================================== 

                             MP2   
                    Program Written by Ugur Bozkaya,
              Additional Contributions by J. P. Misiewicz

 ============================================================================== 
 ============================================================================== 
 ============================================================================== 

	MO spaces per irreps... 

	IRREP   FC    OCC   VIR  FV 
	==============================
	   A     0    24    80    0
	==============================

	Memory is 500000 MB 
	Cost of iabc is     88 MB 
	Cost of abcd is    312 MB 
	Switching to the incore algorithm for iabc..
	Switching to the incore algorithm for abcd..

	Computing MP2 energy using SCF MOs (Canonical MP2)... 
	============================================================================== 
	Nuclear Repulsion Energy (a.u.)    :   235.94662124248822
	SCF Energy (a.u.)                  :  -377.58625576814757
	REF Energy (a.u.)                  :  -377.58625576814757
	Alpha-Alpha Contribution (a.u.)    :    -0.13795422445019
	Alpha-Beta Contribution (a.u.)     :    -0.74379537480768
	Beta-Beta Contribution (a.u.)      :    -0.13795422445019
	Scaled_SS Correlation Energy (a.u.):    -0.09196948296679
	Scaled_OS Correlation Energy (a.u.):    -0.89255444976921
	SCS-MP2 Total Energy (a.u.)        :  -378.57077970088352
	SOS-MP2 Total Energy (a.u.)        :  -378.47881021791676
	SCSN-MP2 Total Energy (a.u.)       :  -378.07185463821224
	SCS-MP2-VDW Total Energy (a.u.)    :  -378.67626807235155
	SOS-PI-MP2 Total Energy (a.u.)     :  -378.62756929287832
	MP2 Correlation Energy (a.u.)      :    -1.01970382370806
	MP2 Total Energy (a.u.)            :  -378.60595959185565
	============================================================================== 


*** tstop() called on n093 at Mon Jun 28 17:41:16 2021
Module time:
	user time   =      15.40 seconds =       0.26 minutes
	system time =       1.06 seconds =       0.02 minutes
	total time  =          3 seconds =       0.05 minutes
Total time:
	user time   =      68.42 seconds =       1.14 minutes
	system time =       2.52 seconds =       0.04 minutes
	total time  =         13 seconds =       0.22 minutes
@@@ Total Run Time: 9.774111270904541
Scratch directory: /tmp/

*** tstart() called on n093
*** at Mon Jun 28 17:41:16 2021

   => Loading Basis Set <=

    Name: CC-PVDZ
    Role: ORBITAL
    Keyword: BASIS
    atoms 1, 7       entry C          line   138 file /opt/psi/4/master/share/psi4/basis/cc-pvdz.gbs 
    atoms 2, 8       entry O          line   198 file /opt/psi/4/master/share/psi4/basis/cc-pvdz.gbs 
    atoms 3, 9       entry N          line   168 file /opt/psi/4/master/share/psi4/basis/cc-pvdz.gbs 
    atoms 4-6, 10-12 entry H          line    22 file /opt/psi/4/master/share/psi4/basis/cc-pvdz.gbs 


         ---------------------------------------------------------
                                   SCF
               by Justin Turney, Rob Parrish, Andy Simmonett
                          and Daniel G. A. Smith
                              RHF Reference
                       12 Threads, 476837 MiB Core
         ---------------------------------------------------------

  ==> Geometry <==

    Molecular point group: c1
    Full point group: C2h

    Geometry (in Angstrom), charge = 0, multiplicity = 1:

       Center              X                  Y                   Z               Mass       
    ------------   -----------------  -----------------  -----------------  -----------------
         C           -2.018649000000     0.052883000000     0.000000000000    12.000000000000
         O           -1.452200000000     1.143634000000     0.000000000000    15.994914619570
         N           -1.407770000000    -1.142484000000     0.000000000000    14.003074004430
         H           -1.964596000000    -1.977036000000     0.000000000000     1.007825032230
         H           -0.387244000000    -1.207782000000     0.000000000000     1.007825032230
         H           -3.117061000000    -0.013701000000     0.000000000000     1.007825032230
         C            2.018649000000    -0.052883000000     0.000000000000    12.000000000000
         O            1.452200000000    -1.143634000000     0.000000000000    15.994914619570
         N            1.407770000000     1.142484000000     0.000000000000    14.003074004430
         H            1.964596000000     1.977036000000     0.000000000000     1.007825032230
         H            0.387244000000     1.207782000000     0.000000000000     1.007825032230
         H            3.117061000000     0.013701000000     0.000000000000     1.007825032230

  Running in c1 symmetry.

  Rotational constants: A =      0.18886  B =      0.06785  C =      0.04992 [cm^-1]
  Rotational constants: A =   5661.79645  B =   2034.12110  C =   1496.47908 [MHz]
  Nuclear repulsion =  230.794856115818362

  Charge       = 0
  Multiplicity = 1
  Electrons    = 48
  Nalpha       = 24
  Nbeta        = 24

  ==> Algorithm <==

  SCF Algorithm Type is PK.
  DIIS enabled.
  MOM disabled.
  Fractional occupation disabled.
  Guess Type is SAD.
  Energy threshold   = 1.00e-08
  Density threshold  = 1.00e-08
  Integral threshold = 0.00e+00

  ==> Primary Basis <==

  Basis Set: CC-PVDZ
    Blend: CC-PVDZ
    Number of shells: 54
    Number of basis function: 114
    Number of Cartesian functions: 120
    Spherical Harmonics?: true
    Max angular momentum: 2

  ==> Integral Setup <==

  Using in-core PK algorithm.
   Calculation information:
      Number of atoms:                  12
      Number of AO shells:              54
      Number of primitives:            162
      Number of atomic orbitals:       120
      Number of basis functions:       114

      Integral cutoff                 1.00e-12
      Number of threads:                12

  Performing in-core PK
  Using 42974580 doubles for integral storage.
  We computed 1262665 shell quartets total.
  Whereas there are 1103355 unique shell quartets.
    14.44 percent of shell quartets recomputed by reordering.

  ==> DiskJK: Disk-Based J/K Matrices <==

    J tasked:                  Yes
    K tasked:                  Yes
    wK tasked:                  No
    Memory [MiB]:           357627
    Schwarz Cutoff:          1E-12

    OpenMP threads:             12

  Minimum eigenvalue in the overlap matrix is 6.7445220125E-03.
  Reciprocal condition number of the overlap matrix is 1.4001083922E-03.
    Using symmetric orthogonalization.

  ==> Pre-Iterations <==

  SCF Guess: Superposition of Atomic Densities via on-the-fly atomic UHF (no occupation information).

   -------------------------
    Irrep   Nso     Nmo    
   -------------------------
     A        114     114 
   -------------------------
    Total     114     114
   -------------------------

  ==> Iterations <==

                        Total Energy        Delta E     RMS |[F,P]|

   @RHF iter SAD:  -336.59105551756124   -3.36591e+02   0.00000e+00 
   @RHF iter   1:  -337.73544042222437   -1.14438e+00   5.59366e-03 DIIS
   @RHF iter   2:  -337.85628841500215   -1.20848e-01   3.50666e-03 DIIS
   @RHF iter   3:  -337.91368132586541   -5.73929e-02   5.36545e-04 DIIS
   @RHF iter   4:  -337.91582749040606   -2.14616e-03   2.20007e-04 DIIS
   @RHF iter   5:  -337.91619996738410   -3.72477e-04   4.64818e-05 DIIS
   @RHF iter   6:  -337.91624674485718   -4.67775e-05   2.37098e-05 DIIS
   @RHF iter   7:  -337.91625709309864   -1.03482e-05   8.53805e-06 DIIS
   @RHF iter   8:  -337.91625859325416   -1.50016e-06   2.50660e-06 DIIS
   @RHF iter   9:  -337.91625871244270   -1.19189e-07   6.67281e-07 DIIS
   @RHF iter  10:  -337.91625872100934   -8.56664e-09   1.32455e-07 DIIS
   @RHF iter  11:  -337.91625872127372   -2.64379e-10   2.57528e-08 DIIS
   @RHF iter  12:  -337.91625872128333   -9.60654e-12   5.63723e-09 DIIS
  Energy and wave function converged.


  ==> Post-Iterations <==

    Orbital Energies [Eh]
    ---------------------

    Doubly Occupied:                                                      

       1A    -20.526035     2A    -20.526035     3A    -15.577368  
       4A    -15.577367     5A    -11.359227     6A    -11.359227  
       7A     -1.379968     8A     -1.375222     9A     -1.209609  
      10A     -1.203581    11A     -0.852475    12A     -0.827132  
      13A     -0.741604    14A     -0.731878    15A     -0.696772  
      16A     -0.635149    17A     -0.610423    18A     -0.585110  
      19A     -0.566276    20A     -0.558721    21A     -0.444174  
      22A     -0.418627    23A     -0.411449    24A     -0.401874  

    Virtual:                                                              

      25A      0.185836    26A      0.188105    27A      0.194979  
      28A      0.201889    29A      0.232200    30A      0.242360  
      31A      0.347730    32A      0.353947    33A      0.446070  
      34A      0.449769    35A      0.527882    36A      0.541869  
      37A      0.661500    38A      0.672938    39A      0.689216  
      40A      0.700298    41A      0.706362    42A      0.721383  
      43A      0.759050    44A      0.781419    45A      0.867717  
      46A      0.904280    47A      0.919410    48A      0.939025  
      49A      0.997455    50A      0.998380    51A      1.003138  
      52A      1.015229    53A      1.092695    54A      1.114963  
      55A      1.213515    56A      1.221727    57A      1.222894  
      58A      1.234988    59A      1.289782    60A      1.299078  
      61A      1.388733    62A      1.401291    63A      1.402481  
      64A      1.444139    65A      1.445453    66A      1.474302  
      67A      1.528762    68A      1.533655    69A      1.612347  
      70A      1.651461    71A      1.719246    72A      1.765699  
      73A      1.781150    74A      1.784320    75A      1.892811  
      76A      1.913390    77A      1.921649    78A      1.927975  
      79A      1.935884    80A      1.972351    81A      1.975346  
      82A      2.027740    83A      2.085680    84A      2.097351  
      85A      2.199388    86A      2.212693    87A      2.436949  
      88A      2.441867    89A      2.474412    90A      2.483692  
      91A      2.544127    92A      2.565208    93A      2.615401  
      94A      2.620001    95A      2.674524    96A      2.725350  
      97A      2.803412    98A      2.829011    99A      2.917473  
     100A      2.966169   101A      3.089613   102A      3.090705  
     103A      3.093637   104A      3.180041   105A      3.208106  
     106A      3.370943   107A      3.464935   108A      3.476059  
     109A      3.476336   110A      3.587743   111A      3.852090  
     112A      3.888077   113A      3.916866   114A      3.938762  

    Final Occupation by Irrep:
              A 
    DOCC [    24 ]

  @RHF Final Energy:  -337.91625872128333

   => Energetics <=

    Nuclear Repulsion Energy =            230.7948561158183622
    One-Electron Energy =                -920.2716261228841859
    Two-Electron Energy =                 351.5605112857825247
    Total Energy =                       -337.9162587212833273

Computation Completed


Properties will be evaluated at   0.000000,   0.000000,   0.000000 [a0]

Properties computed using the SCF density matrix

  Nuclear Dipole Moment: [e a0]
     X:    -0.0000      Y:     0.0000      Z:     0.0000

  Electronic Dipole Moment: [e a0]
     X:     0.0000      Y:     0.0000      Z:     0.0000

  Dipole Moment: [e a0]
     X:     0.0000      Y:     0.0000      Z:     0.0000     Total:     0.0000

  Dipole Moment: [D]
     X:     0.0000      Y:     0.0000      Z:     0.0000     Total:     0.0000


*** tstop() called on n093 at Mon Jun 28 17:41:19 2021
Module time:
	user time   =      31.91 seconds =       0.53 minutes
	system time =       0.76 seconds =       0.01 minutes
	total time  =          3 seconds =       0.05 minutes
Total time:
	user time   =     101.05 seconds =       1.68 minutes
	system time =       3.34 seconds =       0.06 minutes
	total time  =         16 seconds =       0.27 minutes
 MINTS: Wrapper to libmints.
   by Justin Turney

   Calculation information:
      Number of threads:                12
      Number of atoms:                  12
      Number of AO shells:              54
      Number of SO shells:              54
      Number of primitives:            162
      Number of atomic orbitals:       120
      Number of basis functions:       114

      Number of irreps:                  1
      Integral cutoff                 0.00e+00
      Number of functions per irrep: [ 114 ]

 OEINTS: Overlap, kinetic, potential, dipole, and quadrupole integrals
         stored in file 35.

      Computing two-electron integrals...done
      Computed 11309041 non-zero two-electron integrals.
        Stored in file 33.


*** tstart() called on n093
*** at Mon Jun 28 17:41:25 2021



  Module OCC Options:
  ----------------------------------------------------------------------------
  ACTIVE                        => (empty)          
  BASIS_RELATIVISTIC            => (empty)          
  BENCH                         => (empty)          
  CACHELEVEL                    => (empty)          
  CCL_ENERGY                    => (empty)          
  CC_DIIS_MAX_VECS              => (empty)          
  CC_DIIS_MIN_VECS              => (empty)          
  CC_MAXITER                    => (empty)          
  CC_TYPE                       => (empty)          
  CEPA_OS_SCALE                 => (empty)          
  CEPA_SOS_SCALE                => (empty)          
  CEPA_SS_SCALE                 => (empty)          
  CEPA_TYPE                     => (empty)          
  CI_TYPE                       => (empty)          
  CUBEPROP_BASIS_FUNCTIONS      => (empty)          
  CUBEPROP_FILEPATH             => (empty)          
  CUBEPROP_ISOCONTOUR_THRESHOLD => (empty)          
  CUBEPROP_ORBITALS             => (empty)          
  CUBEPROP_TASKS                => (empty)          
  CUBIC_BASIS_TOLERANCE         => (empty)          
  CUBIC_BLOCK_MAX_POINTS        => (empty)          
  CUBIC_GRID_OVERAGE            => (empty)          
  CUBIC_GRID_SPACING            => (empty)          
  CUTOFF                        => (empty)          
  DEBUG                         => (empty)          
  DERTYPE                       => (empty)          
  DF_BASIS_CC                   => (empty)          
  DIE_IF_NOT_CONVERGED          => (empty)          
  DIIS_MAX_VECS                 => (empty)          
  DIIS_MIN_VECS                 => (empty)          
  DKH_ORDER                     => (empty)          
  DOCC                          => (empty)          
  DO_DIIS                       => (empty)          
  DO_LEVEL_SHIFT                => (empty)          
  DO_SCS                        => (empty)          
  DO_SOS                        => (empty)          
  E3_SCALE                      => (empty)          
  EA_POLES                      => (empty)          
  EKT_EA                        => (empty)          
  EKT_IP                        => (empty)          
  EP_EA_POLES                   => (empty)          
  EP_IP_POLES                   => (empty)          
  EP_MAXITER                    => (empty)          
  EXTERNAL_POTENTIAL_SYMMETRY   => (empty)          
  E_CONVERGENCE                 => 1e-08           !
  FREEZE_CORE                   => (empty)          
  FROZEN_DOCC                   => (empty)          
  FROZEN_UOCC                   => (empty)          
  INTEGRAL_PACKAGE              => (empty)          
  IP_POLES                      => (empty)          
  LEVEL_SHIFT                   => (empty)          
  LINEQ_SOLVER                  => (empty)          
  LITERAL_CFOUR                 => (empty)          
  MAT_NUM_COLUMN_PRINT          => (empty)          
  MAX_MOGRAD_CONVERGENCE        => (empty)          
  MOGRAD_DAMPING                => (empty)          
  MOLDEN_WITH_VIRTUAL           => (empty)          
  MO_DIIS_NUM_VECS              => (empty)          
  MO_MAXITER                    => (empty)          
  MO_READ                       => (empty)          
  MO_STEP_MAX                   => (empty)          
  MO_WRITE                      => (empty)          
  MP2_OS_SCALE                  => (empty)          
  MP2_SOS_SCALE                 => (empty)          
  MP2_SOS_SCALE2                => (empty)          
  MP2_SS_SCALE                  => (empty)          
  MP2_TYPE                      => CONV            !
  MP_TYPE                       => (empty)          
  NAT_ORBS                      => (empty)          
  NUM_FROZEN_DOCC               => (empty)          
  NUM_FROZEN_UOCC               => (empty)          
  NUM_GPUS                      => (empty)          
  OCC_ORBS_PRINT                => (empty)          
  OEPROP                        => (empty)          
  OPT_METHOD                    => (empty)          
  ORB_OPT                       => FALSE           !
  ORB_RESP_SOLVER               => (empty)          
  ORTH_TYPE                     => (empty)          
  OS_SCALE                      => (empty)          
  PARENT_SYMMETRY               => (empty)          
  PCG_BETA_TYPE                 => (empty)          
  PCG_CONVERGENCE               => (empty)          
  PCG_MAXITER                   => (empty)          
  PCM                           => (empty)          
  PE                            => (empty)          
  PRINT                         => (empty)          
  PRINT_NOONS                   => (empty)          
  PROPERTIES                    => (empty)          
  PROPERTIES_ORIGIN             => (empty)          
  PUREAM                        => TRUE            !
  QC_MODULE                     => (empty)          
  RAS1                          => (empty)          
  RAS2                          => (empty)          
  RAS3                          => (empty)          
  RAS4                          => (empty)          
  RELATIVISTIC                  => (empty)          
  RELAXED                       => (empty)          
  RESTRICTED_DOCC               => (empty)          
  RESTRICTED_UOCC               => (empty)          
  RMS_MOGRAD_CONVERGENCE        => (empty)          
  R_CONVERGENCE                 => (empty)          
  SCF_TYPE                      => PK              !
  SCS_TYPE                      => (empty)          
  SOCC                          => (empty)          
  SOS_TYPE                      => (empty)          
  SPIN_SCALE_TYPE               => NONE            !
  SS_SCALE                      => (empty)          
  SYMMETRIZE                    => (empty)          
  TPDM_ABCD_TYPE                => (empty)          
  WFN                           => (empty)          
  WFN_TYPE                      => OMP2            !
  WRITER_FILE_LABEL             => (empty)          


 ============================================================================== 
 ============================================================================== 
 ============================================================================== 

                             MP2   
                    Program Written by Ugur Bozkaya,
              Additional Contributions by J. P. Misiewicz

 ============================================================================== 
 ============================================================================== 
 ============================================================================== 

	MO spaces per irreps... 

	IRREP   FC    OCC   VIR  FV 
	==============================
	   A     0    24    90    0
	==============================

	Memory is 500000 MB 
	Cost of iabc is    128 MB 
	Cost of abcd is    496 MB 
	Switching to the incore algorithm for iabc..
	Switching to the incore algorithm for abcd..

	Computing MP2 energy using SCF MOs (Canonical MP2)... 
	============================================================================== 
	Nuclear Repulsion Energy (a.u.)    :   230.79485611581836
	SCF Energy (a.u.)                  :  -337.91625872128333
	REF Energy (a.u.)                  :  -337.91625872128333
	Alpha-Alpha Contribution (a.u.)    :    -0.13008436049146
	Alpha-Beta Contribution (a.u.)     :    -0.72679163723983
	Beta-Beta Contribution (a.u.)      :    -0.13008436049146
	Scaled_SS Correlation Energy (a.u.):    -0.08672290699431
	Scaled_OS Correlation Energy (a.u.):    -0.87214996468780
	SCS-MP2 Total Energy (a.u.)        :  -338.87513159296543
	SOS-MP2 Total Energy (a.u.)        :  -338.78840868597115
	SCSN-MP2 Total Energy (a.u.)       :  -338.37415567021327
	SCS-MP2-VDW Total Energy (a.u.)    :  -338.97663637744176
	SOS-PI-MP2 Total Energy (a.u.)     :  -338.93376701341907
	MP2 Correlation Energy (a.u.)      :    -0.98696035822275
	MP2 Total Energy (a.u.)            :  -338.90321907950607
	============================================================================== 


*** tstop() called on n093 at Mon Jun 28 17:41:28 2021
Module time:
	user time   =      18.30 seconds =       0.30 minutes
	system time =       1.61 seconds =       0.03 minutes
	total time  =          3 seconds =       0.05 minutes
Total time:
	user time   =     126.62 seconds =       2.11 minutes
	system time =       5.12 seconds =       0.09 minutes
	total time  =         25 seconds =       0.42 minutes
@@@ Total Run Time: 12.701782464981079
Scratch directory: /tmp/

*** tstart() called on n093
*** at Mon Jun 28 17:41:28 2021

   => Loading Basis Set <=

    Name: CC-PVDZ
    Role: ORBITAL
    Keyword: BASIS
    atoms 1, 8, 13, 20      entry O          line   198 file /opt/psi/4/master/share/psi4/basis/cc-pvdz.gbs 
    atoms 2, 4-6, 14, 16-18 entry C          line   138 file /opt/psi/4/master/share/psi4/basis/cc-pvdz.gbs 
    atoms 3, 7, 15, 19      entry N          line   168 file /opt/psi/4/master/share/psi4/basis/cc-pvdz.gbs 
    atoms 9-12, 21-24       entry H          line    22 file /opt/psi/4/master/share/psi4/basis/cc-pvdz.gbs 


         ---------------------------------------------------------
                                   SCF
               by Justin Turney, Rob Parrish, Andy Simmonett
                          and Daniel G. A. Smith
                              RHF Reference
                       12 Threads, 476837 MiB Core
         ---------------------------------------------------------

  ==> Geometry <==

    Molecular point group: c1
    Full point group: C2h

    Geometry (in Angstrom), charge = 0, multiplicity = 1:

       Center              X                  Y                   Z               Mass       
    ------------   -----------------  -----------------  -----------------  -----------------
         O           -1.466331600000     1.012169300000     0.000000000000    15.994914619570
         C           -0.628146400000     1.914267800000     0.000000000000    12.000000000000
         N            0.720509300000     1.688268800000     0.000000000000    14.003074004430
         C            1.636729000000     2.705276400000     0.000000000000    12.000000000000
         C            1.276903600000     4.006176300000     0.000000000000    12.000000000000
         C           -0.128600500000     4.362154900000     0.000000000000    12.000000000000
         N           -0.977723000000     3.239643300000     0.000000000000    14.003074004430
         O           -0.597222900000     5.486406600000     0.000000000000    15.994914619570
         H            2.010350400000     4.793864200000     0.000000000000     1.007825032230
         H            1.023251500000     0.706182000000     0.000000000000     1.007825032230
         H           -1.970026800000     3.432385000000     0.000000000000     1.007825032230
         H            2.669062000000     2.388341700000     0.000000000000     1.007825032230
         O            1.466331600000    -1.012169300000     0.000000000000    15.994914619570
         C            0.628146400000    -1.914267800000     0.000000000000    12.000000000000
         N           -0.720509300000    -1.688268800000     0.000000000000    14.003074004430
         C           -1.636729000000    -2.705276400000     0.000000000000    12.000000000000
         C           -1.276903600000    -4.006176300000     0.000000000000    12.000000000000
         C            0.128600500000    -4.362154900000     0.000000000000    12.000000000000
         N            0.977723000000    -3.239643300000     0.000000000000    14.003074004430
         O            0.597222900000    -5.486406600000     0.000000000000    15.994914619570
         H           -2.010350400000    -4.793864200000     0.000000000000     1.007825032230
         H           -1.023251500000    -0.706182000000     0.000000000000     1.007825032230
         H            1.970026800000    -3.432385000000     0.000000000000     1.007825032230
         H           -2.669062000000    -2.388341700000     0.000000000000     1.007825032230

  Running in c1 symmetry.

  Rotational constants: A =      0.06308  B =      0.00659  C =      0.00597 [cm^-1]
  Rotational constants: A =   1891.15166  B =    197.60853  C =    178.91364 [MHz]
  Nuclear repulsion = 1032.281915801686637

  Charge       = 0
  Multiplicity = 1
  Electrons    = 116
  Nalpha       = 58
  Nbeta        = 58

  ==> Algorithm <==

  SCF Algorithm Type is PK.
  DIIS enabled.
  MOM disabled.
  Fractional occupation disabled.
  Guess Type is SAD.
  Energy threshold   = 1.00e-08
  Density threshold  = 1.00e-08
  Integral threshold = 0.00e+00

  ==> Primary Basis <==

  Basis Set: CC-PVDZ
    Blend: CC-PVDZ
    Number of shells: 120
    Number of basis function: 264
    Number of Cartesian functions: 280
    Spherical Harmonics?: true
    Max angular momentum: 2

  ==> Integral Setup <==

  Using in-core PK algorithm.
   Calculation information:
      Number of atoms:                  24
      Number of AO shells:             120
      Number of primitives:            392
      Number of atomic orbitals:       280
      Number of basis functions:       264

      Integral cutoff                 1.00e-12
      Number of threads:                12

  Performing in-core PK
  Using 1223635380 doubles for integral storage.
  We computed 14468648 shell quartets total.
  Whereas there are 26357430 unique shell quartets.

  ==> DiskJK: Disk-Based J/K Matrices <==

    J tasked:                  Yes
    K tasked:                  Yes
    wK tasked:                  No
    Memory [MiB]:           357627
    Schwarz Cutoff:          1E-12

    OpenMP threads:             12

  Minimum eigenvalue in the overlap matrix is 1.3614556232E-03.
  Reciprocal condition number of the overlap matrix is 2.4580979943E-04.
    Using symmetric orthogonalization.

  ==> Pre-Iterations <==

[...]
  Nuclear repulsion =  805.117736910687995

  Charge       = 0
  Multiplicity = 1
  Electrons    = 100
  Nalpha       = 50
  Nbeta        = 50

  ==> Algorithm <==

  SCF Algorithm Type is PK.
  DIIS enabled.
  MOM disabled.
  Fractional occupation disabled.
  Guess Type is SAD.
  Energy threshold   = 1.00e-08
  Density threshold  = 1.00e-08
  Integral threshold = 0.00e+00

  ==> Primary Basis <==

  Basis Set: CC-PVDZ
    Blend: CC-PVDZ
    Number of shells: 120
    Number of basis function: 256
    Number of Cartesian functions: 270
    Spherical Harmonics?: true
    Max angular momentum: 2

  ==> Integral Setup <==

  Using in-core PK algorithm.
   Calculation information:
      Number of atoms:                  26
      Number of AO shells:             120
      Number of primitives:            368
      Number of atomic orbitals:       270
      Number of basis functions:       256

      Integral cutoff                 1.00e-12
      Number of threads:                12

  Performing in-core PK
  Using 1082179712 doubles for integral storage.
  We computed 17980727 shell quartets total.
  Whereas there are 26357430 unique shell quartets.

  ==> DiskJK: Disk-Based J/K Matrices <==

    J tasked:                  Yes
    K tasked:                  Yes
    wK tasked:                  No
    Memory [MiB]:           357627
    Schwarz Cutoff:          1E-12

    OpenMP threads:             12

  Minimum eigenvalue in the overlap matrix is 3.5765952356E-04.
  Reciprocal condition number of the overlap matrix is 6.0566135818E-05.
    Using symmetric orthogonalization.

  ==> Pre-Iterations <==

  SCF Guess: Superposition of Atomic Densities via on-the-fly atomic UHF (no occupation information).

   -------------------------
    Irrep   Nso     Nmo    
   -------------------------
     A        256     256 
   -------------------------
    Total     256     256
   -------------------------

  ==> Iterations <==

                        Total Energy        Delta E     RMS |[F,P]|

   @RHF iter SAD:  -610.01816344467625   -6.10018e+02   0.00000e+00 
   @RHF iter   1:  -610.90130401036481   -8.83141e-01   2.60428e-03 DIIS
   @RHF iter   2:  -611.13724770248109   -2.35944e-01   1.13758e-03 DIIS
   @RHF iter   3:  -611.17755179325650   -4.03041e-02   2.54403e-04 DIIS
   @RHF iter   4:  -611.18064687100480   -3.09508e-03   1.06639e-04 DIIS
   @RHF iter   5:  -611.18107552737513   -4.28656e-04   1.72430e-05 DIIS
   @RHF iter   6:  -611.18109749997370   -2.19726e-05   5.73947e-06 DIIS
   @RHF iter   7:  -611.18110000306763   -2.50309e-06   2.36933e-06 DIIS
   @RHF iter   8:  -611.18110039010662   -3.87039e-07   7.75706e-07 DIIS
   @RHF iter   9:  -611.18110045366575   -6.35591e-08   2.71906e-07 DIIS
   @RHF iter  10:  -611.18110046347078   -9.80504e-09   1.47057e-07 DIIS
   @RHF iter  11:  -611.18110046747893   -4.00814e-09   5.83974e-08 DIIS
   @RHF iter  12:  -611.18110046820732   -7.28392e-10   2.02466e-08 DIIS
   @RHF iter  13:  -611.18110046825700   -4.96811e-11   7.56168e-09 DIIS
  Energy and wave function converged.


  ==> Post-Iterations <==

    Orbital Energies [Eh]
    ---------------------

    Doubly Occupied:                                                      

       1A    -20.616566     2A    -20.567243     3A    -11.317061  
       4A    -11.291108     5A    -11.255156     6A    -11.251720  
       7A    -11.249719     8A    -11.241424     9A    -11.240578  
      10A    -11.234804    11A    -11.233549    12A    -11.222887  
      13A    -11.220005    14A    -11.219039    15A     -1.427479  
      16A     -1.385065    17A     -1.159139    18A     -1.135529  
      19A     -1.031160    20A     -1.017597    21A     -1.008544  
      22A     -0.992613    23A     -0.859562    24A     -0.836467  
      25A     -0.831676    26A     -0.809486    27A     -0.746417  
      28A     -0.720754    29A     -0.696539    30A     -0.677046  
      31A     -0.660026    32A     -0.637818    33A     -0.619154  
      34A     -0.610817    35A     -0.602470    36A     -0.597568  
      37A     -0.585318    38A     -0.576400    39A     -0.569119  
      40A     -0.547485    41A     -0.523869    42A     -0.504363  
      43A     -0.502165    44A     -0.494517    45A     -0.477244  
      46A     -0.468184    47A     -0.350726    48A     -0.331715  
      49A     -0.325172    50A     -0.299475  

    Virtual:                                                              

      51A      0.120252    52A      0.140913    53A      0.144873  
      54A      0.160403    55A      0.164425    56A      0.182842  
      57A      0.197412    58A      0.217758    59A      0.229948  
      60A      0.234915    61A      0.249036    62A      0.259431  
      63A      0.266757    64A      0.277656    65A      0.283274  
      66A      0.321543    67A      0.350732    68A      0.369648  
      69A      0.400452    70A      0.423244    71A      0.432238  
      72A      0.439867    73A      0.455089    74A      0.459818  
      75A      0.487674    76A      0.493164    77A      0.508391  
      78A      0.522518    79A      0.600565    80A      0.622284  
      81A      0.624726    82A      0.644704    83A      0.655827  
      84A      0.665083    85A      0.681466    86A      0.685566  
      87A      0.696261    88A      0.703053    89A      0.716133  
      90A      0.720646    91A      0.725876    92A      0.730151  
      93A      0.733281    94A      0.737003    95A      0.740299  
      96A      0.746356    97A      0.747797    98A      0.755668  
      99A      0.770627   100A      0.784056   101A      0.787892  
     102A      0.797478   103A      0.807904   104A      0.825570  
     105A      0.836555   106A      0.847558   107A      0.851262  
     108A      0.865641   109A      0.869949   110A      0.871955  
     111A      0.890922   112A      0.897142   113A      0.903553  
     114A      0.914284   115A      0.943834   116A      0.946779  
     117A      0.952088   118A      0.972910   119A      1.010786  
     120A      1.016585   121A      1.033394   122A      1.052697  
     123A      1.087551   124A      1.093070   125A      1.110136  
     126A      1.119175   127A      1.126010   128A      1.128751  
     129A      1.130097   130A      1.143101   131A      1.152976  
     132A      1.167813   133A      1.207845   134A      1.211917  
     135A      1.224079   136A      1.234886   137A      1.237343  
     138A      1.252009   139A      1.260454   140A      1.262308  
     141A      1.275701   142A      1.277568   143A      1.289862  
     144A      1.298175   145A      1.317631   146A      1.323083  
     147A      1.328200   148A      1.348187   149A      1.360067  
     150A      1.363507   151A      1.383530   152A      1.397901  
     153A      1.435224   154A      1.461862   155A      1.478025  
     156A      1.494309   157A      1.512871   158A      1.539723  
     159A      1.575941   160A      1.582136   161A      1.617499  
     162A      1.681262   163A      1.730990   164A      1.738464  
     165A      1.743969   166A      1.753074   167A      1.757274  
     168A      1.763789   169A      1.776250   170A      1.807202  
     171A      1.826967   172A      1.839925   173A      1.863710  
     174A      1.872611   175A      1.877047   176A      1.888540  
     177A      1.892063   178A      1.903474   179A      1.910231  
     180A      1.913520   181A      1.920182   182A      1.926244  
     183A      1.934949   184A      1.942222   185A      1.953467  
     186A      1.962653   187A      1.971460   188A      1.978025  
     189A      1.995207   190A      2.013642   191A      2.041329  
     192A      2.053843   193A      2.066257   194A      2.074415  
     195A      2.077238   196A      2.097734   197A      2.131097  
     198A      2.140400   199A      2.147277   200A      2.149898  
     201A      2.151264   202A      2.156971   203A      2.166512  
     204A      2.171497   205A      2.176891   206A      2.183830  
     207A      2.211633   208A      2.235968   209A      2.263584  
     210A      2.275692   211A      2.291696   212A      2.305210  
     213A      2.316983   214A      2.322147   215A      2.376227  
     216A      2.428673   217A      2.438814   218A      2.478207  
     219A      2.495549   220A      2.498168   221A      2.515973  
     222A      2.540318   223A      2.559556   224A      2.614900  
     225A      2.641689   226A      2.702216   227A      2.732767  
     228A      2.749624   229A      2.769229   230A      2.787859  
     231A      2.796425   232A      2.809687   233A      2.815189  
     234A      2.836278   235A      2.945204   236A      2.965710  
     237A      2.985396   238A      3.006611   239A      3.074131  
     240A      3.091755   241A      3.165110   242A      3.191166  
     243A      3.226684   244A      3.255190   245A      3.280364  
     246A      3.283332   247A      3.300326   248A      3.365839  
     249A      3.584311   250A      3.611269   251A      3.702151  
     252A      3.751817   253A      3.979544   254A      3.997205  
     255A      4.187690   256A      4.251194  

    Final Occupation by Irrep:
              A 
    DOCC [    50 ]

  @RHF Final Energy:  -611.18110046825700

   => Energetics <=

    Nuclear Repulsion Energy =            805.1177369106879951
    One-Electron Energy =               -2429.0385952782985441
    Two-Electron Energy =                1012.7397578993534353
    Total Energy =                       -611.1811004682570001

Computation Completed


Properties will be evaluated at   0.000000,   0.000000,   0.000000 [a0]

Properties computed using the SCF density matrix

  Nuclear Dipole Moment: [e a0]
     X:     1.0923      Y:    -3.5832      Z:     0.9617

  Electronic Dipole Moment: [e a0]
     X:     0.0884      Y:     3.2909      Z:    -0.3026

  Dipole Moment: [e a0]
     X:     1.1807      Y:    -0.2923      Z:     0.6591     Total:     1.3834

  Dipole Moment: [D]
     X:     3.0010      Y:    -0.7430      Z:     1.6753     Total:     3.5163


*** tstop() called on n093 at Mon Jun 28 18:48:57 2021
Module time:
	user time   =     216.16 seconds =       3.60 minutes
	system time =       5.27 seconds =       0.09 minutes
	total time  =         53 seconds =       0.88 minutes
Total time:
	user time   =    7504.06 seconds =     125.07 minutes
	system time =     707.95 seconds =      11.80 minutes
	total time  =       4074 seconds =      67.90 minutes
 MINTS: Wrapper to libmints.
   by Justin Turney

   Calculation information:
      Number of threads:                12
      Number of atoms:                  26
      Number of AO shells:             120
      Number of SO shells:             120
      Number of primitives:            368
      Number of atomic orbitals:       270
      Number of basis functions:       256

      Number of irreps:                  1
      Integral cutoff                 0.00e+00
      Number of functions per irrep: [ 256 ]

 OEINTS: Overlap, kinetic, potential, dipole, and quadrupole integrals
         stored in file 35.

      Computing two-electron integrals...done
      Computed 541043340 non-zero two-electron integrals.
        Stored in file 33.


*** tstart() called on n093
*** at Mon Jun 28 18:51:17 2021



  Module OCC Options:
  ----------------------------------------------------------------------------
  ACTIVE                        => (empty)          
  BASIS_RELATIVISTIC            => (empty)          
  BENCH                         => (empty)          
  CACHELEVEL                    => (empty)          
  CCL_ENERGY                    => (empty)          
  CC_DIIS_MAX_VECS              => (empty)          
  CC_DIIS_MIN_VECS              => (empty)          
  CC_MAXITER                    => (empty)          
  CC_TYPE                       => (empty)          
  CEPA_OS_SCALE                 => (empty)          
  CEPA_SOS_SCALE                => (empty)          
  CEPA_SS_SCALE                 => (empty)          
  CEPA_TYPE                     => (empty)          
  CI_TYPE                       => (empty)          
  CUBEPROP_BASIS_FUNCTIONS      => (empty)          
  CUBEPROP_FILEPATH             => (empty)          
  CUBEPROP_ISOCONTOUR_THRESHOLD => (empty)          
  CUBEPROP_ORBITALS             => (empty)          
  CUBEPROP_TASKS                => (empty)          
  CUBIC_BASIS_TOLERANCE         => (empty)          
  CUBIC_BLOCK_MAX_POINTS        => (empty)          
  CUBIC_GRID_OVERAGE            => (empty)          
  CUBIC_GRID_SPACING            => (empty)          
  CUTOFF                        => (empty)          
  DEBUG                         => (empty)          
  DERTYPE                       => (empty)          
  DF_BASIS_CC                   => (empty)          
  DIE_IF_NOT_CONVERGED          => (empty)          
  DIIS_MAX_VECS                 => (empty)          
  DIIS_MIN_VECS                 => (empty)          
  DKH_ORDER                     => (empty)          
  DOCC                          => (empty)          
  DO_DIIS                       => (empty)          
  DO_LEVEL_SHIFT                => (empty)          
  DO_SCS                        => (empty)          
  DO_SOS                        => (empty)          
  E3_SCALE                      => (empty)          
  EA_POLES                      => (empty)          
  EKT_EA                        => (empty)          
  EKT_IP                        => (empty)          
  EP_EA_POLES                   => (empty)          
  EP_IP_POLES                   => (empty)          
  EP_MAXITER                    => (empty)          
  EXTERNAL_POTENTIAL_SYMMETRY   => (empty)          
  E_CONVERGENCE                 => 1e-08           !
  FREEZE_CORE                   => (empty)          
  FROZEN_DOCC                   => (empty)          
  FROZEN_UOCC                   => (empty)          
  INTEGRAL_PACKAGE              => (empty)          
  IP_POLES                      => (empty)          
  LEVEL_SHIFT                   => (empty)          
  LINEQ_SOLVER                  => (empty)          
  LITERAL_CFOUR                 => (empty)          
  MAT_NUM_COLUMN_PRINT          => (empty)          
  MAX_MOGRAD_CONVERGENCE        => (empty)          
  MOGRAD_DAMPING                => (empty)          
  MOLDEN_WITH_VIRTUAL           => (empty)          
  MO_DIIS_NUM_VECS              => (empty)          
  MO_MAXITER                    => (empty)          
  MO_READ                       => (empty)          
  MO_STEP_MAX                   => (empty)          
  MO_WRITE                      => (empty)          
  MP2_OS_SCALE                  => (empty)          
  MP2_SOS_SCALE                 => (empty)          
  MP2_SOS_SCALE2                => (empty)          
  MP2_SS_SCALE                  => (empty)          
  MP2_TYPE                      => CONV            !
  MP_TYPE                       => (empty)          
  NAT_ORBS                      => (empty)          
  NUM_FROZEN_DOCC               => (empty)          
  NUM_FROZEN_UOCC               => (empty)          
  NUM_GPUS                      => (empty)          
  OCC_ORBS_PRINT                => (empty)          
  OEPROP                        => (empty)          
  OPT_METHOD                    => (empty)          
  ORB_OPT                       => FALSE           !
  ORB_RESP_SOLVER               => (empty)          
  ORTH_TYPE                     => (empty)          
  OS_SCALE                      => (empty)          
  PARENT_SYMMETRY               => (empty)          
  PCG_BETA_TYPE                 => (empty)          
  PCG_CONVERGENCE               => (empty)          
  PCG_MAXITER                   => (empty)          
  PCM                           => (empty)          
  PE                            => (empty)          
  PRINT                         => (empty)          
  PRINT_NOONS                   => (empty)          
  PROPERTIES                    => (empty)          
  PROPERTIES_ORIGIN             => (empty)          
  PUREAM                        => TRUE            !
  QC_MODULE                     => (empty)          
  RAS1                          => (empty)          
  RAS2                          => (empty)          
  RAS3                          => (empty)          
  RAS4                          => (empty)          
  RELATIVISTIC                  => (empty)          
  RELAXED                       => (empty)          
  RESTRICTED_DOCC               => (empty)          
  RESTRICTED_UOCC               => (empty)          
  RMS_MOGRAD_CONVERGENCE        => (empty)          
  R_CONVERGENCE                 => (empty)          
  SCF_TYPE                      => PK              !
  SCS_TYPE                      => (empty)          
  SOCC                          => (empty)          
  SOS_TYPE                      => (empty)          
  SPIN_SCALE_TYPE               => NONE            !
  SS_SCALE                      => (empty)          
  SYMMETRIZE                    => (empty)          
  TPDM_ABCD_TYPE                => (empty)          
  WFN                           => (empty)          
  WFN_TYPE                      => OMP2            !
  WRITER_FILE_LABEL             => (empty)          


 ============================================================================== 
 ============================================================================== 
 ============================================================================== 

                             MP2   
                    Program Written by Ugur Bozkaya,
              Additional Contributions by J. P. Misiewicz

 ============================================================================== 
 ============================================================================== 
 ============================================================================== 

	MO spaces per irreps... 

	IRREP   FC    OCC   VIR  FV 
	==============================
	   A     0    50   206    0
	==============================

	Memory is 500000 MB 
	Cost of iabc is   3328 MB 
	Cost of abcd is  13736 MB 
	Switching to the incore algorithm for iabc..
	Switching to the incore algorithm for abcd..

	Computing MP2 energy using SCF MOs (Canonical MP2)... 
	============================================================================== 
	Nuclear Repulsion Energy (a.u.)    :   805.11773691068800
	SCF Energy (a.u.)                  :  -611.18110046825700
	REF Energy (a.u.)                  :  -611.18110046825700
	Alpha-Alpha Contribution (a.u.)    :    -0.26593618273335
	Alpha-Beta Contribution (a.u.)     :    -1.44355513908895
	Beta-Beta Contribution (a.u.)      :    -0.26593618273335
	Scaled_SS Correlation Energy (a.u.):    -0.17729078848890
	Scaled_OS Correlation Energy (a.u.):    -1.73226616690674
	SCS-MP2 Total Energy (a.u.)        :  -613.09065742365249
	SOS-MP2 Total Energy (a.u.)        :  -612.91336663516370
	SCSN-MP2 Total Energy (a.u.)       :  -612.11719583147828
	SCS-MP2-VDW Total Energy (a.u.)    :  -613.29478722902422
	SOS-PI-MP2 Total Energy (a.u.)     :  -613.20207766298154
	MP2 Correlation Energy (a.u.)      :    -1.97542750455565
	MP2 Total Energy (a.u.)            :  -613.15652797281268
	============================================================================== 


*** tstop() called on n093 at Mon Jun 28 18:52:54 2021
Module time:
	user time   =     134.93 seconds =       2.25 minutes
	system time =      35.96 seconds =       0.60 minutes
	total time  =         97 seconds =       1.62 minutes
Total time:
	user time   =    7774.91 seconds =     129.58 minutes
	system time =     750.68 seconds =      12.51 minutes
	total time  =       4311 seconds =      71.85 minutes
@@@ Total Run Time: 291.15687465667725
    Psi4 stopped on: Monday, 28 June 2021 06:52PM
    Psi4 wall time for execution: 1:11:52.18

*** Psi4 exiting successfully. Buy a developer a beer!
