
    -----------------------------------------------------------------------
          Psi4: An Open-Source Ab Initio Electronic Structure Package
                               Psi4 1.4a2.dev629 

                         Git: Rev {master} 2938fc2 dirty


    D. G. A. Smith, L. A. Burns, A. C. Simmonett, R. M. Parrish,
    M. C. Schieber, R. Galvelis, P. Kraus, H. Kruse, R. Di Remigio,
    A. Alenaizan, A. M. James, S. Lehtola, J. P. Misiewicz, M. Scheurer,
    R. A. Shaw, J. B. Schriber, Y. Xie, Z. L. Glick, D. A. Sirianni,
    J. S. O'Brien, J. M. Waldrop, A. Kumar, E. G. Hohenstein,
    B. P. Pritchard, B. R. Brooks, H. F. Schaefer III, A. Yu. Sokolov,
    K. Patkowski, A. E. DePrince III, U. Bozkaya, R. A. King,
    F. A. Evangelista, J. M. Turney, T. D. Crawford, C. D. Sherrill,
    J. Chem. Phys. 152(18) 184108 (2020). https://doi.org/10.1063/5.0006002

                            Additional Code Authors
    E. T. Seidl, C. L. Janssen, E. F. Valeev, M. L. Leininger,
    J. F. Gonthier, R. M. Richard, H. R. McAlexander, M. Saitow, X. Wang,
    P. Verma, and M. H. Lechner

             Previous Authors, Complete List of Code Contributors,
                       and Citations for Specific Modules
    https://github.com/psi4/psi4/blob/master/codemeta.json
    https://github.com/psi4/psi4/graphs/contributors
    http://psicode.org/psi4manual/master/introduction.html#citing-psifour

    -----------------------------------------------------------------------


    Psi4 started on: Friday, 02 July 2021 09:11AM

    Process ID: 48290
    Host:       n093
    PSIDATADIR: /opt/psi/4/master/share/psi4
    Memory:     500.0 MiB
    Threads:    12
    
  ==> Input File <==

--------------------------------------------------------------------------
import psi4
import time

# Basic options trying to be uniform

psi4.set_num_threads(12)
psi4.set_memory('700 GB')
psi4.set_options({"basis" : "cc-pvdz",
                  "scf_type" : "pk",
                  "mp2_type" : "conv",
                  "cc_type" : "conv",
                  "puream" : True,
                  "freeze_core" : True,
                  "e_convergence" : 1e-8,
                  "cc_num_threads" : 12,
                  "d_convergence" : 1e-8})

times = []
for i in range(1,23):

    # Read in xyz file
    molstring = open("../../xyz/S22-{}-dimer.xyz".format(i), "r").read()

    # Remove first two lines from xyz and add symmetry
    molstring = str(molstring.split("\n",2)[2]) + "\nsymmetry c1"
    mol = psi4.geometry(molstring)

    # Run energy compt
    t = time.time()
    psi4.energy("ccsd", molecule=mol)
    psi4.core.clean()

    # Print out time
    psi4.core.print_out("@@@ Total Run Time: {}".format(time.time() - t))



    

    
--------------------------------------------------------------------------
  Threads set to 12 by Python driver.

  Memory set to 651.926 GiB by Python driver.

Scratch directory: /tmp/

*** tstart() called on n093
*** at Fri Jul  2 09:11:22 2021

   => Loading Basis Set <=

    Name: CC-PVDZ
    Role: ORBITAL
    Keyword: BASIS
    atoms 1, 5     entry N          line   168 file /opt/psi/4/master/share/psi4/basis/cc-pvdz.gbs 
    atoms 2-4, 6-8 entry H          line    22 file /opt/psi/4/master/share/psi4/basis/cc-pvdz.gbs 


         ---------------------------------------------------------
                                   SCF
               by Justin Turney, Rob Parrish, Andy Simmonett
                          and Daniel G. A. Smith
                              RHF Reference
                       12 Threads, 667572 MiB Core
         ---------------------------------------------------------

  ==> Geometry <==

    Molecular point group: c1
    Full point group: C2h

    Geometry (in Angstrom), charge = 0, multiplicity = 1:

       Center              X                  Y                   Z               Mass       
    ------------   -----------------  -----------------  -----------------  -----------------
         N           -1.578718000000    -0.046611000000     0.000000000000    14.003074004430
         H           -2.158621000000     0.136396000000    -0.809565000000     1.007825032230
         H           -2.158621000000     0.136396000000     0.809565000000     1.007825032230
         H           -0.849471000000     0.658193000000     0.000000000000     1.007825032230
         N            1.578718000000     0.046611000000     0.000000000000    14.003074004430
         H            2.158621000000    -0.136396000000    -0.809565000000     1.007825032230
         H            0.849471000000    -0.658193000000     0.000000000000     1.007825032230
         H            2.158621000000    -0.136396000000     0.809565000000     1.007825032230

  Running in c1 symmetry.

  Rotational constants: A =      4.61798  B =      0.18515  C =      0.18189 [cm^-1]
  Rotational constants: A = 138443.46063  B =   5550.61948  C =   5452.77663 [MHz]
  Nuclear repulsion =   40.314239997527565

  Charge       = 0
  Multiplicity = 1
  Electrons    = 20
  Nalpha       = 10
  Nbeta        = 10

  ==> Algorithm <==

  SCF Algorithm Type is PK.
  DIIS enabled.
  MOM disabled.
  Fractional occupation disabled.
  Guess Type is SAD.
  Energy threshold   = 1.00e-08
  Density threshold  = 1.00e-08
  Integral threshold = 0.00e+00

  ==> Primary Basis <==

  Basis Set: CC-PVDZ
    Blend: CC-PVDZ
    Number of shells: 30
    Number of basis function: 58
    Number of Cartesian functions: 60
    Spherical Harmonics?: true
    Max angular momentum: 2

  ==> Integral Setup <==

  Using in-core PK algorithm.
   Calculation information:
      Number of atoms:                   8
      Number of AO shells:              30
      Number of primitives:             74
      Number of atomic orbitals:        60
      Number of basis functions:        58

      Integral cutoff                 1.00e-12
      Number of threads:                12

  Performing in-core PK
  Using 2929232 doubles for integral storage.
  We computed 168470 shell quartets total.
  Whereas there are 108345 unique shell quartets.
    55.49 percent of shell quartets recomputed by reordering.

  ==> DiskJK: Disk-Based J/K Matrices <==

    J tasked:                  Yes
    K tasked:                  Yes
    wK tasked:                  No
    Memory [MiB]:           500679
    Schwarz Cutoff:          1E-12

    OpenMP threads:             12

  Minimum eigenvalue in the overlap matrix is 2.6780377816E-02.
  Reciprocal condition number of the overlap matrix is 5.7492214108E-03.
    Using symmetric orthogonalization.

  ==> Pre-Iterations <==

  SCF Guess: Superposition of Atomic Densities via on-the-fly atomic UHF (no occupation information).

   -------------------------
    Irrep   Nso     Nmo    
   -------------------------
     A         58      58 
   -------------------------
    Total      58      58
   -------------------------

  ==> Iterations <==

                        Total Energy        Delta E     RMS |[F,P]|

   @RHF iter SAD:  -111.43728983181441   -1.11437e+02   0.00000e+00 
   @RHF iter   1:  -112.25059856459708   -8.13309e-01   9.37047e-03 DIIS
   @RHF iter   2:  -112.36437570382985   -1.13777e-01   4.73283e-03 DIIS
   @RHF iter   3:  -112.39519176259836   -3.08161e-02   5.59493e-04 DIIS
   @RHF iter   4:  -112.39622016791910   -1.02841e-03   8.83260e-05 DIIS
   @RHF iter   5:  -112.39624117916233   -2.10112e-05   1.77780e-05 DIIS
   @RHF iter   6:  -112.39624269495214   -1.51579e-06   3.84871e-06 DIIS
   @RHF iter   7:  -112.39624279473153   -9.97794e-08   7.65175e-07 DIIS
   @RHF iter   8:  -112.39624279860939   -3.87786e-09   2.01984e-07 DIIS
   @RHF iter   9:  -112.39624279885658   -2.47184e-10   5.00786e-08 DIIS
   @RHF iter  10:  -112.39624279887043   -1.38556e-11   5.53408e-09 DIIS
  Energy and wave function converged.


  ==> Post-Iterations <==

    Orbital Energies [Eh]
    ---------------------

    Doubly Occupied:                                                      

       1A    -15.531191     2A    -15.531188     3A     -1.130974  
       4A     -1.123152     5A     -0.628199     6A     -0.612324  
       7A     -0.610086     8A     -0.592879     9A     -0.417936  
      10A     -0.413618  

    Virtual:                                                              

      11A      0.183485    12A      0.216607    13A      0.271444  
      14A      0.276500    15A      0.301501    16A      0.330489  
      17A      0.704803    18A      0.747960    19A      0.755460  
      20A      0.761972    21A      0.894555    22A      0.896347  
      23A      0.991705    24A      1.055314    25A      1.056597  
      26A      1.076390    27A      1.101939    28A      1.113948  
      29A      1.285559    30A      1.321410    31A      1.328015  
      32A      1.352064    33A      1.482565    34A      1.491636  
      35A      1.767970    36A      1.776732    37A      1.916055  
      38A      1.923295    39A      1.959822    40A      1.961004  
      41A      1.974402    42A      2.046907    43A      2.309686  
      44A      2.315000    45A      2.326060    46A      2.335445  
      47A      2.560660    48A      2.601521    49A      2.816377  
      50A      2.825662    51A      2.844594    52A      2.878089  
      53A      2.982995    54A      2.986875    55A      3.293592  
      56A      3.320825    57A      3.350350    58A      3.367107  

    Final Occupation by Irrep:
              A 
    DOCC [    10 ]

  @RHF Final Energy:  -112.39624279887043

   => Energetics <=

    Nuclear Repulsion Energy =             40.3142399975275652
    One-Electron Energy =                -232.2378721604324596
    Two-Electron Energy =                  79.5273893640344482
    Total Energy =                       -112.3962427988704320

Computation Completed


Properties will be evaluated at   0.000000,   0.000000,   0.000000 [a0]

Properties computed using the SCF density matrix

  Nuclear Dipole Moment: [e a0]
     X:    -0.0000      Y:     0.0000      Z:     0.0000

  Electronic Dipole Moment: [e a0]
     X:    -0.0000      Y:     0.0000      Z:    -0.0000

  Dipole Moment: [e a0]
     X:    -0.0000      Y:     0.0000      Z:    -0.0000     Total:     0.0000

  Dipole Moment: [D]
     X:    -0.0000      Y:     0.0000      Z:    -0.0000     Total:     0.0000


*** tstop() called on n093 at Fri Jul  2 09:11:22 2021
Module time:
	user time   =       5.86 seconds =       0.10 minutes
	system time =       0.10 seconds =       0.00 minutes
	total time  =          0 seconds =       0.00 minutes
Total time:
	user time   =       5.86 seconds =       0.10 minutes
	system time =       0.10 seconds =       0.00 minutes
	total time  =          0 seconds =       0.00 minutes
 MINTS: Wrapper to libmints.
   by Justin Turney

   Calculation information:
      Number of threads:                12
      Number of atoms:                   8
      Number of AO shells:              30
      Number of SO shells:              30
      Number of primitives:             74
      Number of atomic orbitals:        60
      Number of basis functions:        58

      Number of irreps:                  1
      Integral cutoff                 0.00e+00
      Number of functions per irrep: [  58 ]

 OEINTS: Overlap, kinetic, potential, dipole, and quadrupole integrals
         stored in file 35.

      Computing two-electron integrals...done
      Computed 1324025 non-zero two-electron integrals.
        Stored in file 33.


*** tstart() called on n093
*** at Fri Jul  2 09:11:23 2021


	Wfn Parameters:
	--------------------
	Wavefunction         = CCSD
	Number of irreps     = 1
	Number of MOs        = 58
	Number of active MOs = 56
	AO-Basis             = NONE
	Semicanonical        = false
	Reference            = RHF
	Print Level          = 1

	IRREP	# MOs	# FZDC	# DOCC	# SOCC	# VIRT	# FZVR
	-----	-----	------	------	------	------	------
	 A	   58	    2	    8	    0	    48	    0
	Transforming integrals...
	IWL integrals will be deleted.
	(OO|OO)...
	Presorting SO-basis two-electron integrals.
	Sorting File: SO Ints (nn|nn) nbuckets = 1
	Transforming the one-electron integrals and constructing Fock matrices
	Starting first half-transformation.
	Sorting half-transformed integrals.
	First half integral transformation complete.
	Starting second half-transformation.
	Two-electron integral transformation complete.
	(OO|OV)...
	Starting second half-transformation.
	Two-electron integral transformation complete.
	(OO|VV)...
	Starting second half-transformation.
	Two-electron integral transformation complete.
	(OV|OO)...
	Starting first half-transformation.
	Sorting half-transformed integrals.
	First half integral transformation complete.
	Starting second half-transformation.
	Two-electron integral transformation complete.
	(OV|OV)...
	Starting second half-transformation.
	Two-electron integral transformation complete.
	(OV|VV)...
	Starting second half-transformation.
	Two-electron integral transformation complete.
	(VV|OO)...
	Starting first half-transformation.
	Sorting half-transformed integrals.
	First half integral transformation complete.
	Starting second half-transformation.
	Two-electron integral transformation complete.
	(VV|OV)...
	Starting second half-transformation.
	Two-electron integral transformation complete.
	(VV|VV)...
	Starting second half-transformation.
	Two-electron integral transformation complete.
	Frozen core energy     =   -101.70495487774923

	Size of irrep 0 of <ab|cd> integrals:      5.308 (MW) /     42.467 (MB)
	Total:                                     5.308 (MW) /     42.467 (MB)

	Size of irrep 0 of <ia|bc> integrals:      0.885 (MW) /      7.078 (MB)
	Total:                                     0.885 (MW) /      7.078 (MB)

	Size of irrep 0 of tijab amplitudes:       0.147 (MW) /      1.180 (MB)
	Total:                                     0.147 (MW) /      1.180 (MB)

	Nuclear Rep. energy          =     40.31423999752757
	SCF energy                   =   -112.39624279887043
	One-electron energy          =    -90.95271976054843
	Two-electron energy          =     39.94719184189827
	Reference energy             =   -112.39624279887184

*** tstop() called on n093 at Fri Jul  2 09:11:24 2021
Module time:
	user time   =      10.54 seconds =       0.18 minutes
	system time =       0.56 seconds =       0.01 minutes
	total time  =          1 seconds =       0.02 minutes
Total time:
	user time   =      18.54 seconds =       0.31 minutes
	system time =       0.69 seconds =       0.01 minutes
	total time  =          2 seconds =       0.03 minutes
            **************************
            *                        *
            *        CCENERGY        *
            *                        *
            **************************

    Nuclear Rep. energy (wfn)     =   40.314239997527565
    SCF energy          (wfn)     = -112.396242798870432
    Reference energy    (file100) = -112.396242798871839

    Input parameters:
    -----------------
    Wave function   =     CCSD
    Reference wfn   =     RHF
    Brueckner       =     No
    Memory (Mbytes) =     700000.0
    Maxiter         =     50
    R_Convergence   =     1.0e-07
    E_Convergence   =     1.0e-08
    Restart         =     Yes
    DIIS            =     Yes
    AO Basis        =     NONE
    ABCD            =     NEW
    Cache Level     =     2
    Cache Type      =     LOW
    Print Level     =     1
    Num. of threads =     12
    # Amps to Print =     10
    Print MP2 Amps? =     No
    Analyze T2 Amps =     No
    Print Pair Ener =     No
    Local CC        =     No
    SCS-MP2         =     False
    SCSN-MP2        =     False
    SCS-CCSD        =     False

MP2 correlation energy -0.3755764844335653
                Solving CC Amplitude Equations
                ------------------------------
  Iter             Energy              RMS        T1Diag      D1Diag    New D1Diag    D2Diag
  ----     ---------------------    ---------   ----------  ----------  ----------   --------
     0        -0.375576484433565    0.000e+00    0.000000    0.000000    0.000000    0.112980
     1        -0.397208412348622    4.521e-02    0.004735    0.009220    0.009220    0.122796
     2        -0.406476985779480    1.526e-02    0.005627    0.011276    0.011276    0.128382
     3        -0.407270220420077    3.768e-03    0.006076    0.012933    0.012933    0.129383
     4        -0.407311306846046    1.052e-03    0.006127    0.013187    0.013187    0.129574
     5        -0.407333995756983    3.202e-04    0.006156    0.013385    0.013385    0.129607
     6        -0.407334177234343    1.132e-04    0.006167    0.013465    0.013465    0.129604
     7        -0.407333343146565    4.327e-05    0.006170    0.013493    0.013493    0.129602
     8        -0.407333277237278    1.908e-05    0.006172    0.013507    0.013507    0.129602
     9        -0.407333060766648    5.837e-06    0.006172    0.013509    0.013509    0.129602
    10        -0.407332943052259    1.744e-06    0.006172    0.013509    0.013509    0.129601
    11        -0.407333009283131    5.648e-07    0.006172    0.013509    0.013509    0.129601
    12        -0.407333021615699    1.729e-07    0.006172    0.013508    0.013508    0.129602
    13        -0.407333029128086    4.815e-08    0.006172    0.013508    0.013508    0.129602
    14        -0.407333029488731    1.196e-08    0.006172    0.013508    0.013508    0.129602

    Iterations converged.


    Largest TIA Amplitudes:
              6   4         0.0101627368
              6   1         0.0071993015
              4  33         0.0066343271
              5  34         0.0066209780
              3  32         0.0065174141
              2  35         0.0063401774
              0   0        -0.0046152544
              4  16         0.0046133613
              3  13         0.0045268637
              5  17         0.0044931476

    Largest TIjAb Amplitudes:
      7   7  12  12        -0.0245233703
      6   6  12  12        -0.0240129546
      6   7  15  12         0.0216400043
      7   6  12  15         0.0216400043
      6   7  12  15         0.0212794332
      7   6  15  12         0.0212794332
      6   6  15  15        -0.0207491326
      7   7  15  15        -0.0200514745
      5   5   5   5        -0.0185950704
      4   4   9   9        -0.0179490444

    SCF energy       (wfn)                    = -112.396242798870432
    Reference energy (file100)                = -112.396242798871839

    Opposite-spin MP2 correlation energy      =   -0.289300530854190
    Same-spin MP2 correlation energy          =   -0.086275953579375
    Singles MP2 correlation energy            =   -0.000000000000000
    MP2 correlation energy                    =   -0.375576484433565
      * MP2 total energy                      = -112.771819283305405

    Opposite-spin CCSD correlation energy     =   -0.328353363412227
    Same-spin CCSD correlation energy         =   -0.078979666076505
    Singles CCSD correlation energy           =    0.000000000000000
    CCSD correlation energy                   =   -0.407333029488731
      * CCSD total energy                     = -112.803575828360565

@@@ Total Run Time: 6.218912839889526
Scratch directory: /tmp/

*** tstart() called on n093
*** at Fri Jul  2 09:11:28 2021

   => Loading Basis Set <=

    Name: CC-PVDZ
    Role: ORBITAL
    Keyword: BASIS
    atoms 1, 4     entry O          line   198 file /opt/psi/4/master/share/psi4/basis/cc-pvdz.gbs 
    atoms 2-3, 5-6 entry H          line    22 file /opt/psi/4/master/share/psi4/basis/cc-pvdz.gbs 


         ---------------------------------------------------------
                                   SCF
               by Justin Turney, Rob Parrish, Andy Simmonett
                          and Daniel G. A. Smith
                              RHF Reference
                       12 Threads, 667572 MiB Core
         ---------------------------------------------------------

  ==> Geometry <==

    Molecular point group: c1
    Full point group: Cs

    Geometry (in Angstrom), charge = 0, multiplicity = 1:

       Center              X                  Y                   Z               Mass       
    ------------   -----------------  -----------------  -----------------  -----------------
         O           -1.485163346101    -0.114724564047     0.000000000000    15.994914619570
         H           -1.868415346101     0.762298435953     0.000000000000     1.007825032230
         H           -0.533833346101     0.040507435953     0.000000000000     1.007825032230
         O            1.416468653899     0.111264435953     0.000000000000    15.994914619570
         H            1.746241653899    -0.373945564047    -0.758561000000     1.007825032230
         H            1.746241653899    -0.373945564047     0.758561000000     1.007825032230

  Running in c1 symmetry.

  Rotational constants: A =      7.15151  B =      0.21457  C =      0.21447 [cm^-1]
  Rotational constants: A = 214396.91837  B =   6432.69061  C =   6429.61818 [MHz]
  Nuclear repulsion =   36.662847996863405

  Charge       = 0
  Multiplicity = 1
  Electrons    = 20
  Nalpha       = 10
  Nbeta        = 10

  ==> Algorithm <==

  SCF Algorithm Type is PK.
  DIIS enabled.
  MOM disabled.
  Fractional occupation disabled.
  Guess Type is SAD.
  Energy threshold   = 1.00e-08
  Density threshold  = 1.00e-08
  Integral threshold = 0.00e+00

  ==> Primary Basis <==

  Basis Set: CC-PVDZ
    Blend: CC-PVDZ
    Number of shells: 24
    Number of basis function: 48
    Number of Cartesian functions: 50
    Spherical Harmonics?: true
    Max angular momentum: 2

  ==> Integral Setup <==

  Using in-core PK algorithm.
   Calculation information:
      Number of atoms:                   6
      Number of AO shells:              24
      Number of primitives:             64
      Number of atomic orbitals:        50
      Number of basis functions:        48

      Integral cutoff                 1.00e-12
      Number of threads:                12

  Performing in-core PK
  Using 1384152 doubles for integral storage.
  We computed 81989 shell quartets total.
  Whereas there are 45150 unique shell quartets.
    81.59 percent of shell quartets recomputed by reordering.

  ==> DiskJK: Disk-Based J/K Matrices <==

    J tasked:                  Yes
    K tasked:                  Yes
    wK tasked:                  No
    Memory [MiB]:           500679
    Schwarz Cutoff:          1E-12

    OpenMP threads:             12

  Minimum eigenvalue in the overlap matrix is 3.0512226358E-02.
  Reciprocal condition number of the overlap matrix is 7.7055058080E-03.
    Using symmetric orthogonalization.

  ==> Pre-Iterations <==

  SCF Guess: Superposition of Atomic Densities via on-the-fly atomic UHF (no occupation information).

   -------------------------
    Irrep   Nso     Nmo    
   -------------------------
     A         48      48 
   -------------------------
    Total      48      48
   -------------------------

  ==> Iterations <==

                        Total Energy        Delta E     RMS |[F,P]|

   @RHF iter SAD:  -151.07608559403033   -1.51076e+02   0.00000e+00 
   @RHF iter   1:  -151.92963138159806   -8.53546e-01   1.17860e-02 DIIS
   @RHF iter   2:  -152.02824431249607   -9.86129e-02   6.57653e-03 DIIS
   @RHF iter   3:  -152.06171528134297   -3.34710e-02   6.36019e-04 DIIS
   @RHF iter   4:  -152.06249452962331   -7.79248e-04   1.44051e-04 DIIS
   @RHF iter   5:  -152.06253325572152   -3.87261e-05   3.72003e-05 DIIS
   @RHF iter   6:  -152.06253589128823   -2.63557e-06   1.56755e-05 DIIS
   @RHF iter   7:  -152.06253623246494   -3.41177e-07   2.55051e-06 DIIS
   @RHF iter   8:  -152.06253624915820   -1.66933e-08   3.65692e-07 DIIS
   @RHF iter   9:  -152.06253624955900   -4.00803e-10   8.27704e-08 DIIS
   @RHF iter  10:  -152.06253624958003   -2.10321e-11   1.65592e-08 DIIS
   @RHF iter  11:  -152.06253624958117   -1.13687e-12   2.74650e-09 DIIS
  Energy and wave function converged.


  ==> Post-Iterations <==

    Orbital Energies [Eh]
    ---------------------

    Doubly Occupied:                                                      

       1A    -20.584144     2A    -20.516107     3A     -1.369039  
       4A     -1.303694     5A     -0.729719     6A     -0.674428  
       7A     -0.600394     8A     -0.543222     9A     -0.514817  
      10A     -0.462408  

    Virtual:                                                              

      11A      0.163879    12A      0.231471    13A      0.240261  
      14A      0.380330    15A      0.759537    16A      0.808167  
      17A      0.844216    18A      0.866697    19A      1.125909  
      20A      1.200730    21A      1.206142    22A      1.237278  
      23A      1.271344    24A      1.318119    25A      1.448512  
      26A      1.449400    27A      1.494317    28A      1.518864  
      29A      1.693964    30A      1.705964    31A      1.807157  
      32A      1.922982    33A      1.971061    34A      2.044033  
      35A      2.422339    36A      2.451527    37A      2.501419  
      38A      2.728134    39A      3.251102    40A      3.297103  
      41A      3.320823    42A      3.369774    43A      3.485241  
      44A      3.543421    45A      3.843158    46A      3.904370  
      47A      4.123243    48A      4.192306  

    Final Occupation by Irrep:
              A 
    DOCC [    10 ]

  @RHF Final Energy:  -152.06253624958117

   => Energetics <=

    Nuclear Repulsion Energy =             36.6628479968634053
    One-Electron Energy =                -282.8548228174973360
    Two-Electron Energy =                  94.1294385710527877
    Total Energy =                       -152.0625362495811430

Computation Completed


Properties will be evaluated at   0.000000,   0.000000,   0.000000 [a0]

Properties computed using the SCF density matrix

  Nuclear Dipole Moment: [e a0]
     X:     1.0217      Y:     0.0515      Z:     0.0000

  Electronic Dipole Moment: [e a0]
     X:     0.0531      Y:    -0.0217      Z:     0.0000

  Dipole Moment: [e a0]
     X:     1.0748      Y:     0.0298      Z:     0.0000     Total:     1.0752

  Dipole Moment: [D]
     X:     2.7319      Y:     0.0756      Z:     0.0000     Total:     2.7330


*** tstop() called on n093 at Fri Jul  2 09:11:29 2021
Module time:
	user time   =       5.88 seconds =       0.10 minutes
	system time =       0.12 seconds =       0.00 minutes
	total time  =          1 seconds =       0.02 minutes
Total time:
	user time   =      66.80 seconds =       1.11 minutes
	system time =       2.43 seconds =       0.04 minutes
	total time  =          7 seconds =       0.12 minutes
 MINTS: Wrapper to libmints.
   by Justin Turney

   Calculation information:
      Number of threads:                12
      Number of atoms:                   6
      Number of AO shells:              24
      Number of SO shells:              24
      Number of primitives:             64
      Number of atomic orbitals:        50
      Number of basis functions:        48

      Number of irreps:                  1
      Integral cutoff                 0.00e+00
      Number of functions per irrep: [  48 ]

 OEINTS: Overlap, kinetic, potential, dipole, and quadrupole integrals
         stored in file 35.

      Computing two-electron integrals...done
      Computed 557476 non-zero two-electron integrals.
        Stored in file 33.


*** tstart() called on n093
*** at Fri Jul  2 09:11:29 2021


	Wfn Parameters:
	--------------------
	Wavefunction         = CCSD
	Number of irreps     = 1
	Number of MOs        = 48
	Number of active MOs = 46
	AO-Basis             = NONE
	Semicanonical        = false
	Reference            = RHF
	Print Level          = 1

	IRREP	# MOs	# FZDC	# DOCC	# SOCC	# VIRT	# FZVR
	-----	-----	------	------	------	------	------
	 A	   48	    2	    8	    0	    38	    0
	Transforming integrals...
	IWL integrals will be deleted.
	(OO|OO)...
	Presorting SO-basis two-electron integrals.
	Sorting File: SO Ints (nn|nn) nbuckets = 1
	Transforming the one-electron integrals and constructing Fock matrices
	Starting first half-transformation.
	Sorting half-transformed integrals.
	First half integral transformation complete.
	Starting second half-transformation.
	Two-electron integral transformation complete.
	(OO|OV)...
	Starting second half-transformation.
	Two-electron integral transformation complete.
	(OO|VV)...
	Starting second half-transformation.
	Two-electron integral transformation complete.
	(OV|OO)...
	Starting first half-transformation.
	Sorting half-transformed integrals.
	First half integral transformation complete.
	Starting second half-transformation.
	Two-electron integral transformation complete.
	(OV|OV)...
	Starting second half-transformation.
	Two-electron integral transformation complete.
	(OV|VV)...
	Starting second half-transformation.
	Two-electron integral transformation complete.
	(VV|OO)...
	Starting first half-transformation.
	Sorting half-transformed integrals.
	First half integral transformation complete.
	Starting second half-transformation.
	Two-electron integral transformation complete.
	(VV|OV)...
	Starting second half-transformation.
	Two-electron integral transformation complete.
	(VV|VV)...
	Starting second half-transformation.
	Two-electron integral transformation complete.
	Frozen core energy     =   -129.20626589185142

	Size of irrep 0 of <ab|cd> integrals:      2.085 (MW) /     16.681 (MB)
	Total:                                     2.085 (MW) /     16.681 (MB)

	Size of irrep 0 of <ia|bc> integrals:      0.439 (MW) /      3.512 (MB)
	Total:                                     0.439 (MW) /      3.512 (MB)

	Size of irrep 0 of tijab amplitudes:       0.092 (MW) /      0.739 (MB)
	Total:                                     0.092 (MW) /      0.739 (MB)

	Nuclear Rep. energy          =     36.66284799686341
	SCF energy                   =   -152.06253624958117
	One-electron energy          =   -106.64279231743069
	Two-electron energy          =     47.12367396283583
	Reference energy             =   -152.06253624958288

*** tstop() called on n093 at Fri Jul  2 09:11:29 2021
Module time:
	user time   =       1.27 seconds =       0.02 minutes
	system time =       0.14 seconds =       0.00 minutes
	total time  =          0 seconds =       0.00 minutes
Total time:
	user time   =      70.08 seconds =       1.17 minutes
	system time =       2.62 seconds =       0.04 minutes
	total time  =          7 seconds =       0.12 minutes
            **************************
            *                        *
            *        CCENERGY        *
            *                        *
            **************************

    Nuclear Rep. energy (wfn)     =   36.662847996863405
    SCF energy          (wfn)     = -152.062536249581171
    Reference energy    (file100) = -152.062536249582877

    Input parameters:
    -----------------
    Wave function   =     CCSD
    Reference wfn   =     RHF
    Brueckner       =     No
    Memory (Mbytes) =     700000.0
    Maxiter         =     50
    R_Convergence   =     1.0e-07
    E_Convergence   =     1.0e-08
    Restart         =     Yes
    DIIS            =     Yes
    AO Basis        =     NONE
    ABCD            =     NEW
    Cache Level     =     2
    Cache Type      =     LOW
    Print Level     =     1
    Num. of threads =     12
    # Amps to Print =     10
    Print MP2 Amps? =     No
    Analyze T2 Amps =     No
    Print Pair Ener =     No
    Local CC        =     No
    SCS-MP2         =     False
    SCSN-MP2        =     False
    SCS-CCSD        =     False

MP2 correlation energy -0.4061756150369045
                Solving CC Amplitude Equations
                ------------------------------
  Iter             Energy              RMS        T1Diag      D1Diag    New D1Diag    D2Diag
  ----     ---------------------    ---------   ----------  ----------  ----------   --------
     0        -0.406175615036905    0.000e+00    0.000000    0.000000    0.000000    0.110073
     1        -0.415581889159164    3.883e-02    0.005193    0.011856    0.011856    0.116227
     2        -0.423331899493575    1.345e-02    0.005903    0.013006    0.013006    0.121376
     3        -0.424470479419106    4.065e-03    0.006560    0.014872    0.014872    0.122773
     4        -0.424451561654805    8.858e-04    0.006610    0.014977    0.014977    0.122963
     5        -0.424477382094030    2.800e-04    0.006638    0.015075    0.015075    0.123013
     6        -0.424479620240760    9.261e-05    0.006647    0.015101    0.015101    0.123014
     7        -0.424477661545046    3.730e-05    0.006650    0.015107    0.015107    0.123010
     8        -0.424477232743550    1.345e-05    0.006651    0.015109    0.015109    0.123009
     9        -0.424477363500003    4.365e-06    0.006652    0.015109    0.015109    0.123009
    10        -0.424477140629573    1.374e-06    0.006652    0.015109    0.015109    0.123009
    11        -0.424477175870352    5.383e-07    0.006652    0.015109    0.015109    0.123009
    12        -0.424477169253768    2.323e-07    0.006652    0.015109    0.015109    0.123009
    13        -0.424477172220770    8.860e-08    0.006652    0.015109    0.015109    0.123009

    Iterations converged.


    Largest TIA Amplitudes:
              3   3        -0.0074595532
              2  24        -0.0072828731
              6   3         0.0063577282
              2   2        -0.0062556306
              4   1         0.0059385341
              4   3         0.0056840520
              5   0         0.0056416199
              5   1         0.0054633817
              3  26         0.0054551369
              4  25        -0.0049523139

    Largest TIjAb Amplitudes:
      7   7  11  11        -0.0407466237
      2   2   4   4        -0.0350526384
      3   3   5   5        -0.0300703878
      2   2   2   2        -0.0287777068
      2   2   6   6        -0.0257333871
      3   3   7   7        -0.0245706353
      6   6  12  12        -0.0225718943
      4   4   4   4        -0.0223526431
      3   3   3   3        -0.0221154776
      4   4   8   8        -0.0215615269

    SCF energy       (wfn)                    = -152.062536249581171
    Reference energy (file100)                = -152.062536249582877

    Opposite-spin MP2 correlation energy      =   -0.303339000598762
    Same-spin MP2 correlation energy          =   -0.102836614438142
    Singles MP2 correlation energy            =   -0.000000000000000
    MP2 correlation energy                    =   -0.406175615036905
      * MP2 total energy                      = -152.468711864619792

    Opposite-spin CCSD correlation energy     =   -0.332662456403887
    Same-spin CCSD correlation energy         =   -0.091814715816883
    Singles CCSD correlation energy           =    0.000000000000000
    CCSD correlation energy                   =   -0.424477172220770
      * CCSD total energy                     = -152.487013421803653

@@@ Total Run Time: 4.453343391418457
Scratch directory: /tmp/

*** tstart() called on n093
*** at Fri Jul  2 09:11:32 2021

   => Loading Basis Set <=

    Name: CC-PVDZ
    Role: ORBITAL
    Keyword: BASIS
    atoms 1, 6      entry C          line   138 file /opt/psi/4/master/share/psi4/basis/cc-pvdz.gbs 
    atoms 2-3, 7-8  entry O          line   198 file /opt/psi/4/master/share/psi4/basis/cc-pvdz.gbs 
    atoms 4-5, 9-10 entry H          line    22 file /opt/psi/4/master/share/psi4/basis/cc-pvdz.gbs 


         ---------------------------------------------------------
                                   SCF
               by Justin Turney, Rob Parrish, Andy Simmonett
                          and Daniel G. A. Smith
                              RHF Reference
                       12 Threads, 667572 MiB Core
         ---------------------------------------------------------

  ==> Geometry <==

    Molecular point group: c1
    Full point group: C2h

    Geometry (in Angstrom), charge = 0, multiplicity = 1:

       Center              X                  Y                   Z               Mass       
    ------------   -----------------  -----------------  -----------------  -----------------
         C           -1.888896000000    -0.179692000000     0.000000000000    12.000000000000
         O           -1.493280000000     1.073689000000     0.000000000000    15.994914619570
         O           -1.170435000000    -1.166590000000     0.000000000000    15.994914619570
         H           -2.979488000000    -0.258829000000     0.000000000000     1.007825032230
         H           -0.498833000000     1.107195000000     0.000000000000     1.007825032230
         C            1.888896000000     0.179692000000     0.000000000000    12.000000000000
         O            1.493280000000    -1.073689000000     0.000000000000    15.994914619570
         O            1.170435000000     1.166590000000     0.000000000000    15.994914619570
         H            2.979488000000     0.258829000000     0.000000000000     1.007825032230
         H            0.498833000000    -1.107195000000     0.000000000000     1.007825032230

  Running in c1 symmetry.

  Rotational constants: A =      0.20119  B =      0.07691  C =      0.05564 [cm^-1]
  Rotational constants: A =   6031.63975  B =   2305.67051  C =   1668.04083 [MHz]
  Nuclear repulsion =  235.946621242488220

  Charge       = 0
  Multiplicity = 1
  Electrons    = 48
  Nalpha       = 24
  Nbeta        = 24

  ==> Algorithm <==

  SCF Algorithm Type is PK.
  DIIS enabled.
  MOM disabled.
  Fractional occupation disabled.
  Guess Type is SAD.
  Energy threshold   = 1.00e-08
  Density threshold  = 1.00e-08
  Integral threshold = 0.00e+00

  ==> Primary Basis <==

  Basis Set: CC-PVDZ
    Blend: CC-PVDZ
    Number of shells: 48
    Number of basis function: 104
    Number of Cartesian functions: 110
    Spherical Harmonics?: true
    Max angular momentum: 2

  ==> Integral Setup <==

  Using in-core PK algorithm.
   Calculation information:
      Number of atoms:                  10
      Number of AO shells:              48
      Number of primitives:            152
      Number of atomic orbitals:       110
      Number of basis functions:       104

      Integral cutoff                 1.00e-12
      Number of threads:                12

  Performing in-core PK
  Using 29817060 doubles for integral storage.
  We computed 887643 shell quartets total.
  Whereas there are 692076 unique shell quartets.
    28.26 percent of shell quartets recomputed by reordering.

  ==> DiskJK: Disk-Based J/K Matrices <==

    J tasked:                  Yes
    K tasked:                  Yes
    wK tasked:                  No
    Memory [MiB]:           500679
    Schwarz Cutoff:          1E-12

    OpenMP threads:             12

  Minimum eigenvalue in the overlap matrix is 1.0051868556E-02.
  Reciprocal condition number of the overlap matrix is 2.2348334966E-03.
    Using symmetric orthogonalization.

  ==> Pre-Iterations <==

  SCF Guess: Superposition of Atomic Densities via on-the-fly atomic UHF (no occupation information).

   -------------------------
    Irrep   Nso     Nmo    
   -------------------------
     A        104     104 
   -------------------------
    Total     104     104
   -------------------------

  ==> Iterations <==

                        Total Energy        Delta E     RMS |[F,P]|

   @RHF iter SAD:  -376.24313672900075   -3.76243e+02   0.00000e+00 
   @RHF iter   1:  -377.42292119343017   -1.17978e+00   6.13542e-03 DIIS
   @RHF iter   2:  -377.52857422652806   -1.05653e-01   3.83059e-03 DIIS
   @RHF iter   3:  -377.58436619184778   -5.57920e-02   4.69774e-04 DIIS
   @RHF iter   4:  -377.58591349147088   -1.54730e-03   2.21603e-04 DIIS
   @RHF iter   5:  -377.58619014377439   -2.76652e-04   5.78263e-05 DIIS
   @RHF iter   6:  -377.58624251432730   -5.23706e-05   2.67131e-05 DIIS
   @RHF iter   7:  -377.58625477737672   -1.22630e-05   7.45854e-06 DIIS
   @RHF iter   8:  -377.58625569497030   -9.17594e-07   2.16271e-06 DIIS
   @RHF iter   9:  -377.58625576166526   -6.66950e-08   6.84119e-07 DIIS
   @RHF iter  10:  -377.58625576788023   -6.21498e-09   1.43198e-07 DIIS
   @RHF iter  11:  -377.58625576814018   -2.59945e-10   2.37641e-08 DIIS
   @RHF iter  12:  -377.58625576814762   -7.44649e-12   5.16396e-09 DIIS
  Energy and wave function converged.


  ==> Post-Iterations <==

    Orbital Energies [Eh]
    ---------------------

    Doubly Occupied:                                                      

       1A    -20.613938     2A    -20.613936     3A    -20.575830  
       4A    -20.575830     5A    -11.411845     6A    -11.411844  
       7A     -1.483606     8A     -1.470533     9A     -1.385180  
      10A     -1.370826    11A     -0.915291    12A     -0.878696  
      13A     -0.764497    14A     -0.728869    15A     -0.719911  
      16A     -0.689266    17A     -0.639487    18A     -0.629704  
      19A     -0.615377    20A     -0.574396    21A     -0.499242  
      22A     -0.490130    23A     -0.488287    24A     -0.467779  

    Virtual:                                                              

      25A      0.161351    26A      0.166568    27A      0.204502  
      28A      0.210100    29A      0.290570    30A      0.317595  
      31A      0.426138    32A      0.432264    33A      0.466246  
      34A      0.502024    35A      0.631140    36A      0.658209  
      37A      0.668969    38A      0.712340    39A      0.719924  
      40A      0.742209    41A      0.804390    42A      0.815833  
      43A      0.888879    44A      0.925867    45A      0.929933  
      46A      0.943982    47A      1.136992    48A      1.147800  
      49A      1.177213    50A      1.181279    51A      1.218827  
      52A      1.255110    53A      1.276437    54A      1.283122  
      55A      1.283178    56A      1.347383    57A      1.363211  
      58A      1.378245    59A      1.427915    60A      1.447183  
      61A      1.551449    62A      1.604759    63A      1.627561  
      64A      1.646571    65A      1.673906    66A      1.742515  
      67A      1.757009    68A      1.769120    69A      1.795256  
      70A      1.901426    71A      1.924628    72A      1.962127  
      73A      1.975146    74A      1.986920    75A      2.018751  
      76A      2.094001    77A      2.180779    78A      2.215178  
      79A      2.504674    80A      2.578476    81A      2.620831  
      82A      2.638250    83A      2.673840    84A      2.706179  
      85A      2.938140    86A      2.952328    87A      3.172916  
      88A      3.187939    89A      3.190240    90A      3.219765  
      91A      3.251756    92A      3.277646    93A      3.403850  
      94A      3.500330    95A      3.509801    96A      3.526447  
      97A      3.584835    98A      3.598791    99A      3.812229  
     100A      3.848500   101A      3.875018   102A      3.926699  
     103A      4.144132   104A      4.167658  

    Final Occupation by Irrep:
              A 
    DOCC [    24 ]

  @RHF Final Energy:  -377.58625576814762

   => Energetics <=

    Nuclear Repulsion Energy =            235.9466212424882201
    One-Electron Energy =                -987.0371568817662364
    Two-Electron Energy =                 373.5042798711303362
    Total Energy =                       -377.5862557681476233

Computation Completed


Properties will be evaluated at   0.000000,   0.000000,   0.000000 [a0]

Properties computed using the SCF density matrix

  Nuclear Dipole Moment: [e a0]
     X:     0.0000      Y:     0.0000      Z:     0.0000

  Electronic Dipole Moment: [e a0]
     X:     0.0000      Y:    -0.0000      Z:     0.0000

  Dipole Moment: [e a0]
     X:     0.0000      Y:    -0.0000      Z:     0.0000     Total:     0.0000

  Dipole Moment: [D]
     X:     0.0000      Y:    -0.0000      Z:     0.0000     Total:     0.0000


*** tstop() called on n093 at Fri Jul  2 09:11:35 2021
Module time:
	user time   =      25.68 seconds =       0.43 minutes
	system time =       0.36 seconds =       0.01 minutes
	total time  =          3 seconds =       0.05 minutes
Total time:
	user time   =     127.64 seconds =       2.13 minutes
	system time =       3.98 seconds =       0.07 minutes
	total time  =         13 seconds =       0.22 minutes
 MINTS: Wrapper to libmints.
   by Justin Turney

   Calculation information:
      Number of threads:                12
      Number of atoms:                  10
      Number of AO shells:              48
      Number of SO shells:              48
      Number of primitives:            152
      Number of atomic orbitals:       110
      Number of basis functions:       104

      Number of irreps:                  1
      Integral cutoff                 0.00e+00
      Number of functions per irrep: [ 104 ]

 OEINTS: Overlap, kinetic, potential, dipole, and quadrupole integrals
         stored in file 35.

      Computing two-electron integrals...done
      Computed 7807824 non-zero two-electron integrals.
        Stored in file 33.


*** tstart() called on n093
*** at Fri Jul  2 09:11:40 2021


	Wfn Parameters:
	--------------------
	Wavefunction         = CCSD
	Number of irreps     = 1
	Number of MOs        = 104
	Number of active MOs = 98
	AO-Basis             = NONE
	Semicanonical        = false
	Reference            = RHF
	Print Level          = 1

	IRREP	# MOs	# FZDC	# DOCC	# SOCC	# VIRT	# FZVR
	-----	-----	------	------	------	------	------
	 A	   104	    6	    18	    0	    80	    0
	Transforming integrals...
	IWL integrals will be deleted.
	(OO|OO)...
	Presorting SO-basis two-electron integrals.
	Sorting File: SO Ints (nn|nn) nbuckets = 1
	Transforming the one-electron integrals and constructing Fock matrices
	Starting first half-transformation.
	Sorting half-transformed integrals.
	First half integral transformation complete.
	Starting second half-transformation.
	Two-electron integral transformation complete.
	(OO|OV)...
	Starting second half-transformation.
	Two-electron integral transformation complete.
	(OO|VV)...
	Starting second half-transformation.
	Two-electron integral transformation complete.
	(OV|OO)...
	Starting first half-transformation.
	Sorting half-transformed integrals.
	First half integral transformation complete.
	Starting second half-transformation.
	Two-electron integral transformation complete.
	(OV|OV)...
	Starting second half-transformation.
	Two-electron integral transformation complete.
	(OV|VV)...
	Starting second half-transformation.
	Two-electron integral transformation complete.
	(VV|OO)...
	Starting first half-transformation.
	Sorting half-transformed integrals.
	First half integral transformation complete.
	Starting second half-transformation.
	Two-electron integral transformation complete.
	(VV|OV)...
	Starting second half-transformation.
	Two-electron integral transformation complete.
	(VV|VV)...
	Starting second half-transformation.
	Two-electron integral transformation complete.
	Frozen core energy     =   -404.01467054960546

	Size of irrep 0 of <ab|cd> integrals:     40.960 (MW) /    327.680 (MB)
	Total:                                    40.960 (MW) /    327.680 (MB)

	Size of irrep 0 of <ia|bc> integrals:      9.216 (MW) /     73.728 (MB)
	Total:                                     9.216 (MW) /     73.728 (MB)

	Size of irrep 0 of tijab amplitudes:       2.074 (MW) /     16.589 (MB)
	Total:                                     2.074 (MW) /     16.589 (MB)

	Nuclear Rep. energy          =    235.94662124248822
	SCF energy                   =   -377.58625576814762
	One-electron energy          =   -389.41426121016502
	Two-electron energy          =    179.89605474912383
	Reference energy             =   -377.58625576815842

*** tstop() called on n093 at Fri Jul  2 09:11:46 2021
Module time:
	user time   =      43.98 seconds =       0.73 minutes
	system time =       3.32 seconds =       0.06 minutes
	total time  =          6 seconds =       0.10 minutes
Total time:
	user time   =     177.64 seconds =       2.96 minutes
	system time =       7.49 seconds =       0.12 minutes
	total time  =         24 seconds =       0.40 minutes
            **************************
            *                        *
            *        CCENERGY        *
            *                        *
            **************************

    Nuclear Rep. energy (wfn)     =  235.946621242488220
    SCF energy          (wfn)     = -377.586255768147623
    Reference energy    (file100) = -377.586255768158424

    Input parameters:
    -----------------
    Wave function   =     CCSD
    Reference wfn   =     RHF
    Brueckner       =     No
    Memory (Mbytes) =     700000.0
    Maxiter         =     50
    R_Convergence   =     1.0e-07
    E_Convergence   =     1.0e-08
    Restart         =     Yes
    DIIS            =     Yes
    AO Basis        =     NONE
    ABCD            =     NEW
    Cache Level     =     2
    Cache Type      =     LOW
    Print Level     =     1
    Num. of threads =     12
    # Amps to Print =     10
    Print MP2 Amps? =     No
    Analyze T2 Amps =     No
    Print Pair Ener =     No
    Local CC        =     No
    SCS-MP2         =     False
    SCSN-MP2        =     False
    SCS-CCSD        =     False

MP2 correlation energy -1.0057077121124718
                Solving CC Amplitude Equations
                ------------------------------
  Iter             Energy              RMS        T1Diag      D1Diag    New D1Diag    D2Diag
  ----     ---------------------    ---------   ----------  ----------  ----------   --------
     0        -1.005707712112472    0.000e+00    0.000000    0.000000    0.000000    0.145656
     1        -0.993454293360778    1.042e-01    0.013919    0.047925    0.047925    0.138394
     2        -1.020456721947951    3.814e-02    0.013783    0.048096    0.048096    0.151895
     3        -1.028962506488510    1.742e-02    0.016985    0.060470    0.060470    0.157897
     4        -1.028364067840814    4.015e-03    0.017596    0.063148    0.063148    0.159321
     5        -1.028442888159082    1.524e-03    0.017862    0.064430    0.064430    0.159888
     6        -1.028450311441167    3.982e-04    0.017906    0.064677    0.064677    0.159941
     7        -1.028428087931710    1.284e-04    0.017910    0.064721    0.064721    0.159929
     8        -1.028425111622867    4.478e-05    0.017912    0.064733    0.064733    0.159926
     9        -1.028426956215229    1.822e-05    0.017912    0.064737    0.064737    0.159926
    10        -1.028425624557394    9.437e-06    0.017912    0.064737    0.064737    0.159925
    11        -1.028425916470693    3.787e-06    0.017912    0.064736    0.064736    0.159924
    12        -1.028425807059125    1.380e-06    0.017912    0.064736    0.064736    0.159924
    13        -1.028425824537030    5.008e-07    0.017912    0.064736    0.064736    0.159924
    14        -1.028425824989569    1.686e-07    0.017912    0.064736    0.064736    0.159924
    15        -1.028425829392534    6.228e-08    0.017912    0.064736    0.064736    0.159924

    Iterations converged.


    Largest TIA Amplitudes:
             11   1         0.0610909426
             10   0         0.0592429876
             15   4         0.0179592337
             15   6        -0.0169574279
             12   4         0.0169184667
             11  11         0.0166408560
             10  10         0.0157232394
             17   3        -0.0129006001
             17   8         0.0122101643
             16  27        -0.0121996790

    Largest TIjAb Amplitudes:
     16  16   1   1        -0.0407976862
     14  16   0   1        -0.0399647940
     16  14   1   0        -0.0399647940
     14  14   0   0        -0.0391484740
     14  14   1   1        -0.0350247997
     14  16   1   0        -0.0346196742
     16  14   0   1        -0.0346196742
     16  16   0   0        -0.0342691824
     11  11   1   1        -0.0261454078
     10  11   0   1        -0.0258475194

    SCF energy       (wfn)                    = -377.586255768147623
    Reference energy (file100)                = -377.586255768158424

    Opposite-spin MP2 correlation energy      =   -0.734438029066402
    Same-spin MP2 correlation energy          =   -0.271269683046070
    Singles MP2 correlation energy            =   -0.000000000000000
    MP2 correlation energy                    =   -1.005707712112472
      * MP2 total energy                      = -378.591963480270920

    Opposite-spin CCSD correlation energy     =   -0.789816900539996
    Same-spin CCSD correlation energy         =   -0.238608928852538
    Singles CCSD correlation energy           =    0.000000000000000
    CCSD correlation energy                   =   -1.028425829392534
      * CCSD total energy                     = -378.614681597550941

@@@ Total Run Time: 50.960681438446045
Scratch directory: /tmp/

*** tstart() called on n093
*** at Fri Jul  2 09:12:23 2021

   => Loading Basis Set <=

    Name: CC-PVDZ
    Role: ORBITAL
    Keyword: BASIS
    atoms 1, 7       entry C          line   138 file /opt/psi/4/master/share/psi4/basis/cc-pvdz.gbs 
    atoms 2, 8       entry O          line   198 file /opt/psi/4/master/share/psi4/basis/cc-pvdz.gbs 
    atoms 3, 9       entry N          line   168 file /opt/psi/4/master/share/psi4/basis/cc-pvdz.gbs 
    atoms 4-6, 10-12 entry H          line    22 file /opt/psi/4/master/share/psi4/basis/cc-pvdz.gbs 


         ---------------------------------------------------------
                                   SCF
               by Justin Turney, Rob Parrish, Andy Simmonett
                          and Daniel G. A. Smith
                              RHF Reference
                       12 Threads, 667572 MiB Core
         ---------------------------------------------------------

  ==> Geometry <==

    Molecular point group: c1
    Full point group: C2h

    Geometry (in Angstrom), charge = 0, multiplicity = 1:

       Center              X                  Y                   Z               Mass       
    ------------   -----------------  -----------------  -----------------  -----------------
         C           -2.018649000000     0.052883000000     0.000000000000    12.000000000000
         O           -1.452200000000     1.143634000000     0.000000000000    15.994914619570
         N           -1.407770000000    -1.142484000000     0.000000000000    14.003074004430
         H           -1.964596000000    -1.977036000000     0.000000000000     1.007825032230
         H           -0.387244000000    -1.207782000000     0.000000000000     1.007825032230
         H           -3.117061000000    -0.013701000000     0.000000000000     1.007825032230
         C            2.018649000000    -0.052883000000     0.000000000000    12.000000000000
         O            1.452200000000    -1.143634000000     0.000000000000    15.994914619570
         N            1.407770000000     1.142484000000     0.000000000000    14.003074004430
         H            1.964596000000     1.977036000000     0.000000000000     1.007825032230
         H            0.387244000000     1.207782000000     0.000000000000     1.007825032230
         H            3.117061000000     0.013701000000     0.000000000000     1.007825032230

  Running in c1 symmetry.

  Rotational constants: A =      0.18886  B =      0.06785  C =      0.04992 [cm^-1]
  Rotational constants: A =   5661.79645  B =   2034.12110  C =   1496.47908 [MHz]
  Nuclear repulsion =  230.794856115818362

  Charge       = 0
  Multiplicity = 1
  Electrons    = 48
  Nalpha       = 24
  Nbeta        = 24

  ==> Algorithm <==

  SCF Algorithm Type is PK.
  DIIS enabled.
  MOM disabled.
  Fractional occupation disabled.
  Guess Type is SAD.
  Energy threshold   = 1.00e-08
  Density threshold  = 1.00e-08
  Integral threshold = 0.00e+00

  ==> Primary Basis <==

  Basis Set: CC-PVDZ
    Blend: CC-PVDZ
    Number of shells: 54
    Number of basis function: 114
    Number of Cartesian functions: 120
    Spherical Harmonics?: true
    Max angular momentum: 2

  ==> Integral Setup <==

  Using in-core PK algorithm.
   Calculation information:
      Number of atoms:                  12
      Number of AO shells:              54
      Number of primitives:            162
      Number of atomic orbitals:       120
      Number of basis functions:       114

      Integral cutoff                 1.00e-12
      Number of threads:                12

  Performing in-core PK
  Using 42974580 doubles for integral storage.
  We computed 1262665 shell quartets total.
  Whereas there are 1103355 unique shell quartets.
    14.44 percent of shell quartets recomputed by reordering.

  ==> DiskJK: Disk-Based J/K Matrices <==

    J tasked:                  Yes
    K tasked:                  Yes
    wK tasked:                  No
    Memory [MiB]:           500679
    Schwarz Cutoff:          1E-12

    OpenMP threads:             12

  Minimum eigenvalue in the overlap matrix is 6.7445220125E-03.
  Reciprocal condition number of the overlap matrix is 1.4001083922E-03.
    Using symmetric orthogonalization.

  ==> Pre-Iterations <==

  SCF Guess: Superposition of Atomic Densities via on-the-fly atomic UHF (no occupation information).

   -------------------------
    Irrep   Nso     Nmo    
   -------------------------
     A        114     114 
   -------------------------
    Total     114     114
   -------------------------

  ==> Iterations <==

                        Total Energy        Delta E     RMS |[F,P]|

   @RHF iter SAD:  -336.59105551756124   -3.36591e+02   0.00000e+00 
   @RHF iter   1:  -337.73544042222403   -1.14438e+00   5.59366e-03 DIIS
   @RHF iter   2:  -337.85628841500193   -1.20848e-01   3.50666e-03 DIIS
   @RHF iter   3:  -337.91368132586547   -5.73929e-02   5.36545e-04 DIIS
   @RHF iter   4:  -337.91582749040623   -2.14616e-03   2.20007e-04 DIIS
   @RHF iter   5:  -337.91619996738422   -3.72477e-04   4.64818e-05 DIIS
   @RHF iter   6:  -337.91624674485701   -4.67775e-05   2.37098e-05 DIIS
   @RHF iter   7:  -337.91625709309881   -1.03482e-05   8.53805e-06 DIIS
   @RHF iter   8:  -337.91625859325410   -1.50016e-06   2.50660e-06 DIIS
   @RHF iter   9:  -337.91625871244253   -1.19188e-07   6.67281e-07 DIIS
   @RHF iter  10:  -337.91625872100963   -8.56710e-09   1.32455e-07 DIIS
   @RHF iter  11:  -337.91625872127355   -2.63924e-10   2.57528e-08 DIIS
   @RHF iter  12:  -337.91625872128355   -1.00044e-11   5.63723e-09 DIIS
  Energy and wave function converged.


  ==> Post-Iterations <==

    Orbital Energies [Eh]
    ---------------------

    Doubly Occupied:                                                      

       1A    -20.526035     2A    -20.526035     3A    -15.577368  
       4A    -15.577367     5A    -11.359227     6A    -11.359227  
       7A     -1.379968     8A     -1.375222     9A     -1.209609  
      10A     -1.203581    11A     -0.852475    12A     -0.827132  
      13A     -0.741604    14A     -0.731878    15A     -0.696772  
      16A     -0.635149    17A     -0.610423    18A     -0.585110  
      19A     -0.566276    20A     -0.558721    21A     -0.444174  
      22A     -0.418627    23A     -0.411449    24A     -0.401874  

    Virtual:                                                              

      25A      0.185836    26A      0.188105    27A      0.194979  
      28A      0.201889    29A      0.232200    30A      0.242360  
      31A      0.347730    32A      0.353947    33A      0.446070  
      34A      0.449769    35A      0.527882    36A      0.541869  
      37A      0.661500    38A      0.672938    39A      0.689216  
      40A      0.700298    41A      0.706362    42A      0.721383  
      43A      0.759050    44A      0.781419    45A      0.867717  
      46A      0.904280    47A      0.919410    48A      0.939025  
      49A      0.997455    50A      0.998380    51A      1.003138  
      52A      1.015229    53A      1.092695    54A      1.114963  
      55A      1.213515    56A      1.221727    57A      1.222894  
      58A      1.234988    59A      1.289782    60A      1.299078  
      61A      1.388733    62A      1.401291    63A      1.402481  
      64A      1.444139    65A      1.445453    66A      1.474302  
      67A      1.528762    68A      1.533655    69A      1.612347  
      70A      1.651461    71A      1.719246    72A      1.765699  
      73A      1.781150    74A      1.784320    75A      1.892811  
      76A      1.913390    77A      1.921649    78A      1.927975  
      79A      1.935884    80A      1.972351    81A      1.975346  
      82A      2.027740    83A      2.085680    84A      2.097351  
      85A      2.199388    86A      2.212693    87A      2.436949  
      88A      2.441867    89A      2.474412    90A      2.483692  
      91A      2.544127    92A      2.565208    93A      2.615401  
      94A      2.620001    95A      2.674524    96A      2.725350  
      97A      2.803412    98A      2.829011    99A      2.917473  
     100A      2.966169   101A      3.089613   102A      3.090705  
     103A      3.093637   104A      3.180041   105A      3.208106  
     106A      3.370943   107A      3.464935   108A      3.476059  
     109A      3.476336   110A      3.587743   111A      3.852090  
     112A      3.888077   113A      3.916866   114A      3.938762  

    Final Occupation by Irrep:
              A 
    DOCC [    24 ]

  @RHF Final Energy:  -337.91625872128355

   => Energetics <=

    Nuclear Repulsion Energy =            230.7948561158183622
    One-Electron Energy =                -920.2716261228850954
    Two-Electron Energy =                 351.5605112857832069
    Total Energy =                       -337.9162587212835547

Computation Completed


Properties will be evaluated at   0.000000,   0.000000,   0.000000 [a0]

Properties computed using the SCF density matrix

  Nuclear Dipole Moment: [e a0]
     X:    -0.0000      Y:     0.0000      Z:     0.0000

  Electronic Dipole Moment: [e a0]
     X:    -0.0000      Y:    -0.0000      Z:    -0.0000

  Dipole Moment: [e a0]
     X:    -0.0000      Y:    -0.0000      Z:    -0.0000     Total:     0.0000

  Dipole Moment: [D]
     X:    -0.0000      Y:    -0.0000      Z:    -0.0000     Total:     0.0000


*** tstop() called on n093 at Fri Jul  2 09:12:26 2021
Module time:
	user time   =      29.88 seconds =       0.50 minutes
	system time =       0.33 seconds =       0.01 minutes
	total time  =          3 seconds =       0.05 minutes
Total time:
	user time   =     617.06 seconds =      10.28 minutes
	system time =      26.95 seconds =       0.45 minutes
	total time  =         64 seconds =       1.07 minutes
 MINTS: Wrapper to libmints.
   by Justin Turney

   Calculation information:
      Number of threads:                12
      Number of atoms:                  12
      Number of AO shells:              54
      Number of SO shells:              54
      Number of primitives:            162
      Number of atomic orbitals:       120
      Number of basis functions:       114

      Number of irreps:                  1
      Integral cutoff                 0.00e+00
      Number of functions per irrep: [ 114 ]

 OEINTS: Overlap, kinetic, potential, dipole, and quadrupole integrals
         stored in file 35.

      Computing two-electron integrals...done
      Computed 11309041 non-zero two-electron integrals.
        Stored in file 33.


*** tstart() called on n093
*** at Fri Jul  2 09:12:32 2021


	Wfn Parameters:
	--------------------
	Wavefunction         = CCSD
	Number of irreps     = 1
	Number of MOs        = 114
	Number of active MOs = 108
	AO-Basis             = NONE
	Semicanonical        = false
	Reference            = RHF
	Print Level          = 1

	IRREP	# MOs	# FZDC	# DOCC	# SOCC	# VIRT	# FZVR
	-----	-----	------	------	------	------	------
	 A	   114	    6	    18	    0	    90	    0
	Transforming integrals...
	IWL integrals will be deleted.
	(OO|OO)...
	Presorting SO-basis two-electron integrals.
	Sorting File: SO Ints (nn|nn) nbuckets = 1
	Transforming the one-electron integrals and constructing Fock matrices
	Starting first half-transformation.
	Sorting half-transformed integrals.
	First half integral transformation complete.
	Starting second half-transformation.
	Two-electron integral transformation complete.
	(OO|OV)...
	Starting second half-transformation.
	Two-electron integral transformation complete.
	(OO|VV)...
	Starting second half-transformation.
	Two-electron integral transformation complete.
	(OV|OO)...
	Starting first half-transformation.
	Sorting half-transformed integrals.
	First half integral transformation complete.
	Starting second half-transformation.
	Two-electron integral transformation complete.
	(OV|OV)...
	Starting second half-transformation.
	Two-electron integral transformation complete.
	(OV|VV)...
	Starting second half-transformation.
	Two-electron integral transformation complete.
	(VV|OO)...
	Starting first half-transformation.
	Sorting half-transformed integrals.
	First half integral transformation complete.
	Starting second half-transformation.
	Two-electron integral transformation complete.
	(VV|OV)...
	Starting second half-transformation.
	Two-electron integral transformation complete.
	(VV|VV)...
	Starting second half-transformation.
	Two-electron integral transformation complete.
	Frozen core energy     =   -372.83852166525605

	Size of irrep 0 of <ab|cd> integrals:     65.610 (MW) /    524.880 (MB)
	Total:                                    65.610 (MW) /    524.880 (MB)

	Size of irrep 0 of <ia|bc> integrals:     13.122 (MW) /    104.976 (MB)
	Total:                                    13.122 (MW) /    104.976 (MB)

	Size of irrep 0 of tijab amplitudes:       2.624 (MW) /     20.995 (MB)
	Total:                                     2.624 (MW) /     20.995 (MB)

	Nuclear Rep. energy          =    230.79485611581836
	SCF energy                   =   -337.91625872128355
	One-electron energy          =   -364.44509890656639
	Two-electron energy          =    168.57250573471151
	Reference energy             =   -337.91625872129259

*** tstop() called on n093 at Fri Jul  2 09:12:41 2021
Module time:
	user time   =      48.71 seconds =       0.81 minutes
	system time =       4.47 seconds =       0.07 minutes
	total time  =          9 seconds =       0.15 minutes
Total time:
	user time   =     672.91 seconds =      11.22 minutes
	system time =      31.58 seconds =       0.53 minutes
	total time  =         79 seconds =       1.32 minutes
            **************************
            *                        *
            *        CCENERGY        *
            *                        *
            **************************

    Nuclear Rep. energy (wfn)     =  230.794856115818362
    SCF energy          (wfn)     = -337.916258721283555
    Reference energy    (file100) = -337.916258721292593

    Input parameters:
    -----------------
    Wave function   =     CCSD
    Reference wfn   =     RHF
    Brueckner       =     No
    Memory (Mbytes) =     700000.0
    Maxiter         =     50
    R_Convergence   =     1.0e-07
    E_Convergence   =     1.0e-08
    Restart         =     Yes
    DIIS            =     Yes
    AO Basis        =     NONE
    ABCD            =     NEW
    Cache Level     =     2
    Cache Type      =     LOW
    Print Level     =     1
    Num. of threads =     12
    # Amps to Print =     10
    Print MP2 Amps? =     No
    Analyze T2 Amps =     No
    Print Pair Ener =     No
    Local CC        =     No
    SCS-MP2         =     False
    SCSN-MP2        =     False
    SCS-CCSD        =     False

MP2 correlation energy -0.9723128264245549
                Solving CC Amplitude Equations
                ------------------------------
  Iter             Energy              RMS        T1Diag      D1Diag    New D1Diag    D2Diag
  ----     ---------------------    ---------   ----------  ----------  ----------   --------
     0        -0.972312826424555    0.000e+00    0.000000    0.000000    0.000000    0.146626
     1        -0.973782874104073    1.033e-01    0.013479    0.045497    0.045497    0.140638
     2        -0.999520700322865    3.811e-02    0.013344    0.045938    0.045938    0.153809
     3        -1.007916679581782    1.805e-02    0.016432    0.057307    0.057307    0.159585
     4        -1.007623243277602    4.642e-03    0.017102    0.060223    0.060223    0.161006
     5        -1.007568874637812    2.058e-03    0.017393    0.061425    0.061425    0.161704
     6        -1.007618418310337    5.821e-04    0.017483    0.061857    0.061857    0.161847
     7        -1.007597197606358    1.892e-04    0.017493    0.061912    0.061912    0.161842
     8        -1.007589649012237    5.439e-05    0.017494    0.061919    0.061919    0.161837
     9        -1.007591474494224    1.795e-05    0.017495    0.061923    0.061923    0.161837
    10        -1.007590159849595    6.709e-06    0.017495    0.061923    0.061923    0.161836
    11        -1.007590173089716    2.481e-06    0.017495    0.061922    0.061922    0.161836
    12        -1.007590065464720    1.376e-06    0.017495    0.061921    0.061921    0.161836
    13        -1.007590034515940    5.102e-07    0.017495    0.061921    0.061921    0.161836
    14        -1.007590042837325    1.963e-07    0.017495    0.061921    0.061921    0.161836
    15        -1.007590047191524    9.093e-08    0.017495    0.061921    0.061921    0.161836

    Iterations converged.


    Largest TIA Amplitudes:
             13   3         0.0583800923
             12   2         0.0574353332
             14   0        -0.0235277050
             15   1        -0.0183686131
             13  14         0.0179816118
             12  13         0.0170348260
             14   6         0.0128116796
             15  10         0.0125284957
             14   9         0.0120181679
             16  38        -0.0109264830

    Largest TIjAb Amplitudes:
     17  17   3   3        -0.0404136393
     16  17   2   3        -0.0390429389
     17  16   3   2        -0.0390429389
     16  16   2   2        -0.0376754572
     16  16   3   3        -0.0335078532
     16  17   3   2        -0.0332769334
     17  16   2   3        -0.0332769334
     17  17   2   2        -0.0331275246
     13  13   3   3        -0.0304776916
     13  13   2   2        -0.0300492445

    SCF energy       (wfn)                    = -337.916258721283555
    Reference energy (file100)                = -337.916258721292593

    Opposite-spin MP2 correlation energy      =   -0.716967470701359
    Same-spin MP2 correlation energy          =   -0.255345355723196
    Singles MP2 correlation energy            =   -0.000000000000000
    MP2 correlation energy                    =   -0.972312826424555
      * MP2 total energy                      = -338.888571547717163

    Opposite-spin CCSD correlation energy     =   -0.780846207225057
    Same-spin CCSD correlation energy         =   -0.226743839966468
    Singles CCSD correlation energy           =    0.000000000000000
    CCSD correlation energy                   =   -1.007590047191524
      * CCSD total energy                     = -338.923848768484106

@@@ Total Run Time: 62.999932527542114
Scratch directory: /tmp/

*** tstart() called on n093
*** at Fri Jul  2 09:13:26 2021

   => Loading Basis Set <=

    Name: CC-PVDZ
    Role: ORBITAL
    Keyword: BASIS
    atoms 1, 8, 13, 20      entry O          line   198 file /opt/psi/4/master/share/psi4/basis/cc-pvdz.gbs 
    atoms 2, 4-6, 14, 16-18 entry C          line   138 file /opt/psi/4/master/share/psi4/basis/cc-pvdz.gbs 
    atoms 3, 7, 15, 19      entry N          line   168 file /opt/psi/4/master/share/psi4/basis/cc-pvdz.gbs 
    atoms 9-12, 21-24       entry H          line    22 file /opt/psi/4/master/share/psi4/basis/cc-pvdz.gbs 


         ---------------------------------------------------------
                                   SCF
               by Justin Turney, Rob Parrish, Andy Simmonett
                          and Daniel G. A. Smith
                              RHF Reference
                       12 Threads, 667572 MiB Core
         ---------------------------------------------------------

  ==> Geometry <==

    Molecular point group: c1
    Full point group: C2h

    Geometry (in Angstrom), charge = 0, multiplicity = 1:

       Center              X                  Y                   Z               Mass       
    ------------   -----------------  -----------------  -----------------  -----------------
         O           -1.466331600000     1.012169300000     0.000000000000    15.994914619570
         C           -0.628146400000     1.914267800000     0.000000000000    12.000000000000
         N            0.720509300000     1.688268800000     0.000000000000    14.003074004430
         C            1.636729000000     2.705276400000     0.000000000000    12.000000000000
         C            1.276903600000     4.006176300000     0.000000000000    12.000000000000
         C           -0.128600500000     4.362154900000     0.000000000000    12.000000000000
         N           -0.977723000000     3.239643300000     0.000000000000    14.003074004430
         O           -0.597222900000     5.486406600000     0.000000000000    15.994914619570
         H            2.010350400000     4.793864200000     0.000000000000     1.007825032230
         H            1.023251500000     0.706182000000     0.000000000000     1.007825032230
         H           -1.970026800000     3.432385000000     0.000000000000     1.007825032230
         H            2.669062000000     2.388341700000     0.000000000000     1.007825032230
         O            1.466331600000    -1.012169300000     0.000000000000    15.994914619570
         C            0.628146400000    -1.914267800000     0.000000000000    12.000000000000
         N           -0.720509300000    -1.688268800000     0.000000000000    14.003074004430
         C           -1.636729000000    -2.705276400000     0.000000000000    12.000000000000
         C           -1.276903600000    -4.006176300000     0.000000000000    12.000000000000
         C            0.128600500000    -4.362154900000     0.000000000000    12.000000000000
         N            0.977723000000    -3.239643300000     0.000000000000    14.003074004430
         O            0.597222900000    -5.486406600000     0.000000000000    15.994914619570
         H           -2.010350400000    -4.793864200000     0.000000000000     1.007825032230
         H           -1.023251500000    -0.706182000000     0.000000000000     1.007825032230
         H            1.970026800000    -3.432385000000     0.000000000000     1.007825032230
         H           -2.669062000000    -2.388341700000     0.000000000000     1.007825032230

  Running in c1 symmetry.

  Rotational constants: A =      0.06308  B =      0.00659  C =      0.00597 [cm^-1]
  Rotational constants: A =   1891.15166  B =    197.60853  C =    178.91364 [MHz]
  Nuclear repulsion = 1032.281915801686637

  Charge       = 0
  Multiplicity = 1
  Electrons    = 116
  Nalpha       = 58
  Nbeta        = 58

  ==> Algorithm <==

  SCF Algorithm Type is PK.
  DIIS enabled.
  MOM disabled.
  Fractional occupation disabled.
  Guess Type is SAD.
  Energy threshold   = 1.00e-08
  Density threshold  = 1.00e-08
  Integral threshold = 0.00e+00

  ==> Primary Basis <==

  Basis Set: CC-PVDZ
    Blend: CC-PVDZ
    Number of shells: 120
    Number of basis function: 264
    Number of Cartesian functions: 280
    Spherical Harmonics?: true
    Max angular momentum: 2

  ==> Integral Setup <==

  Using in-core PK algorithm.
   Calculation information:
      Number of atoms:                  24
      Number of AO shells:             120
      Number of primitives:            392
      Number of atomic orbitals:       280
      Number of basis functions:       264

      Integral cutoff                 1.00e-12
      Number of threads:                12

  Performing in-core PK
  Using 1223635380 doubles for integral storage.
  We computed 14468648 shell quartets total.
  Whereas there are 26357430 unique shell quartets.

  ==> DiskJK: Disk-Based J/K Matrices <==

    J tasked:                  Yes
    K tasked:                  Yes
    wK tasked:                  No
    Memory [MiB]:           500679
    Schwarz Cutoff:          1E-12

    OpenMP threads:             12

  Minimum eigenvalue in the overlap matrix is 1.3614556232E-03.
  Reciprocal condition number of the overlap matrix is 2.4580979943E-04.
    Using symmetric orthogonalization.

  ==> Pre-Iterations <==

  SCF Guess: Superposition of Atomic Densities via on-the-fly atomic UHF (no occupation information).

   -------------------------
    Irrep   Nso     Nmo    
   -------------------------
     A        264     264 
   -------------------------
    Total     264     264
   -------------------------

  ==> Iterations <==

                        Total Energy        Delta E     RMS |[F,P]|

   @RHF iter SAD:  -823.79572955359879   -8.23796e+02   0.00000e+00 
   @RHF iter   1:  -824.61189646645551   -8.16167e-01   3.60368e-03 DIIS
   @RHF iter   2:  -824.87089221620329   -2.58996e-01   2.49404e-03 DIIS
   @RHF iter   3:  -825.02723904667994   -1.56347e-01   4.07881e-04 DIIS
   @RHF iter   4:  -825.03449911982625   -7.26007e-03   1.60808e-04 DIIS
   @RHF iter   5:  -825.03580710047436   -1.30798e-03   3.79080e-05 DIIS
   @RHF iter   6:  -825.03599688753911   -1.89787e-04   1.94708e-05 DIIS
   @RHF iter   7:  -825.03603281374649   -3.59262e-05   7.36357e-06 DIIS
   @RHF iter   8:  -825.03603778933166   -4.97559e-06   2.55690e-06 DIIS
   @RHF iter   9:  -825.03603820143144   -4.12100e-07   9.67033e-07 DIIS
   @RHF iter  10:  -825.03603828777796   -8.63465e-08   3.23521e-07 DIIS
   @RHF iter  11:  -825.03603829756071   -9.78275e-09   1.07935e-07 DIIS
   @RHF iter  12:  -825.03603829836163   -8.00924e-10   3.10896e-08 DIIS
   @RHF iter  13:  -825.03603829844428   -8.26503e-11   1.09594e-08 DIIS
   @RHF iter  14:  -825.03603829845883   -1.45519e-11   5.20918e-09 DIIS
  Energy and wave function converged.


  ==> Post-Iterations <==

    Orbital Energies [Eh]
    ---------------------

    Doubly Occupied:                                                      

       1A    -20.561249     2A    -20.561248     3A    -20.542076  
       4A    -20.542076     5A    -15.635174     6A    -15.635173  
       7A    -15.633770     8A    -15.633770     9A    -11.433131  
      10A    -11.433130    11A    -11.384526    12A    -11.384526  
      13A    -11.340287    14A    -11.340286    15A    -11.255476  
      16A    -11.255476    17A     -1.446490    18A     -1.441584  
      19A     -1.399843    20A     -1.399267    21A     -1.318088  
      22A     -1.310989    23A     -1.248827    24A     -1.245199  
      25A     -1.087846    26A     -1.085501    27A     -0.933421  
      28A     -0.932167    29A     -0.911235    30A     -0.894585  
      31A     -0.810336    32A     -0.798819    33A     -0.766279  
      34A     -0.762665    35A     -0.718811    36A     -0.707404  
      37A     -0.697605    38A     -0.671950    39A     -0.668111  
      40A     -0.667748    41A     -0.663461    42A     -0.645976  
      43A     -0.611384    44A     -0.609820    45A     -0.597347  
      46A     -0.594486    47A     -0.570498    48A     -0.567485  
      49A     -0.525327    50A     -0.519484    51A     -0.500277  
      52A     -0.484104    53A     -0.446793    54A     -0.445417  
      55A     -0.440734    56A     -0.439996    57A     -0.364731  
      58A     -0.361966  

    Virtual:                                                              

      59A      0.098522    60A      0.098632    61A      0.163892  
      62A      0.168849    63A      0.175394    64A      0.175598  
      65A      0.203786    66A      0.203942    67A      0.234216  
      68A      0.236058    69A      0.282072    70A      0.306064  
[...]
         H            1.892143351172    -1.665169653515    -2.170190214444     1.007825032230
         H            3.833019751172    -2.481350753515    -0.856672514444     1.007825032230
         H            4.613760251172    -1.185207153515     1.109257585556     1.007825032230
         H            3.459882451172     0.902840546485     1.756942985556     1.007825032230

  Running in c1 symmetry.

  Rotational constants: A =      0.04290  B =      0.01188  C =      0.01059 [cm^-1]
  Rotational constants: A =   1285.97921  B =    356.14873  C =    317.56970 [MHz]
  Nuclear repulsion =  805.117736910687995

  Charge       = 0
  Multiplicity = 1
  Electrons    = 100
  Nalpha       = 50
  Nbeta        = 50

  ==> Algorithm <==

  SCF Algorithm Type is PK.
  DIIS enabled.
  MOM disabled.
  Fractional occupation disabled.
  Guess Type is SAD.
  Energy threshold   = 1.00e-08
  Density threshold  = 1.00e-08
  Integral threshold = 0.00e+00

  ==> Primary Basis <==

  Basis Set: CC-PVDZ
    Blend: CC-PVDZ
    Number of shells: 120
    Number of basis function: 256
    Number of Cartesian functions: 270
    Spherical Harmonics?: true
    Max angular momentum: 2

  ==> Integral Setup <==

  Using in-core PK algorithm.
   Calculation information:
      Number of atoms:                  26
      Number of AO shells:             120
      Number of primitives:            368
      Number of atomic orbitals:       270
      Number of basis functions:       256

      Integral cutoff                 1.00e-12
      Number of threads:                12

  Performing in-core PK
  Using 1082179712 doubles for integral storage.
  We computed 17980727 shell quartets total.
  Whereas there are 26357430 unique shell quartets.

  ==> DiskJK: Disk-Based J/K Matrices <==

    J tasked:                  Yes
    K tasked:                  Yes
    wK tasked:                  No
    Memory [MiB]:           500679
    Schwarz Cutoff:          1E-12

    OpenMP threads:             12

  Minimum eigenvalue in the overlap matrix is 3.5765952356E-04.
  Reciprocal condition number of the overlap matrix is 6.0566135818E-05.
    Using symmetric orthogonalization.

  ==> Pre-Iterations <==

  SCF Guess: Superposition of Atomic Densities via on-the-fly atomic UHF (no occupation information).

   -------------------------
    Irrep   Nso     Nmo    
   -------------------------
     A        256     256 
   -------------------------
    Total     256     256
   -------------------------

  ==> Iterations <==

                        Total Energy        Delta E     RMS |[F,P]|

   @RHF iter SAD:  -610.01816344467557   -6.10018e+02   0.00000e+00 
   @RHF iter   1:  -610.90130401036549   -8.83141e-01   2.60428e-03 DIIS
   @RHF iter   2:  -611.13724770248120   -2.35944e-01   1.13758e-03 DIIS
   @RHF iter   3:  -611.17755179325661   -4.03041e-02   2.54403e-04 DIIS
   @RHF iter   4:  -611.18064687100525   -3.09508e-03   1.06639e-04 DIIS
   @RHF iter   5:  -611.18107552737467   -4.28656e-04   1.72430e-05 DIIS
   @RHF iter   6:  -611.18109749997268   -2.19726e-05   5.73947e-06 DIIS
   @RHF iter   7:  -611.18110000306751   -2.50309e-06   2.36933e-06 DIIS
   @RHF iter   8:  -611.18110039010787   -3.87040e-07   7.75706e-07 DIIS
   @RHF iter   9:  -611.18110045366586   -6.35580e-08   2.71906e-07 DIIS
   @RHF iter  10:  -611.18110046347147   -9.80560e-09   1.47057e-07 DIIS
   @RHF iter  11:  -611.18110046747972   -4.00826e-09   5.83974e-08 DIIS
   @RHF iter  12:  -611.18110046820755   -7.27823e-10   2.02466e-08 DIIS
   @RHF iter  13:  -611.18110046825609   -4.85443e-11   7.56168e-09 DIIS
  Energy and wave function converged.


  ==> Post-Iterations <==

    Orbital Energies [Eh]
    ---------------------

    Doubly Occupied:                                                      

       1A    -20.616566     2A    -20.567243     3A    -11.317061  
       4A    -11.291108     5A    -11.255156     6A    -11.251720  
       7A    -11.249719     8A    -11.241424     9A    -11.240578  
      10A    -11.234804    11A    -11.233549    12A    -11.222887  
      13A    -11.220005    14A    -11.219039    15A     -1.427479  
      16A     -1.385065    17A     -1.159139    18A     -1.135529  
      19A     -1.031160    20A     -1.017597    21A     -1.008544  
      22A     -0.992613    23A     -0.859562    24A     -0.836467  
      25A     -0.831676    26A     -0.809486    27A     -0.746417  
      28A     -0.720754    29A     -0.696539    30A     -0.677046  
      31A     -0.660026    32A     -0.637818    33A     -0.619154  
      34A     -0.610817    35A     -0.602470    36A     -0.597568  
      37A     -0.585318    38A     -0.576400    39A     -0.569119  
      40A     -0.547485    41A     -0.523869    42A     -0.504363  
      43A     -0.502165    44A     -0.494517    45A     -0.477244  
      46A     -0.468184    47A     -0.350726    48A     -0.331715  
      49A     -0.325172    50A     -0.299475  

    Virtual:                                                              

      51A      0.120252    52A      0.140913    53A      0.144873  
      54A      0.160403    55A      0.164425    56A      0.182842  
      57A      0.197412    58A      0.217758    59A      0.229948  
      60A      0.234915    61A      0.249036    62A      0.259431  
      63A      0.266757    64A      0.277656    65A      0.283274  
      66A      0.321543    67A      0.350732    68A      0.369648  
      69A      0.400452    70A      0.423244    71A      0.432238  
      72A      0.439867    73A      0.455089    74A      0.459818  
      75A      0.487674    76A      0.493164    77A      0.508391  
      78A      0.522518    79A      0.600565    80A      0.622284  
      81A      0.624726    82A      0.644704    83A      0.655827  
      84A      0.665083    85A      0.681466    86A      0.685566  
      87A      0.696261    88A      0.703053    89A      0.716133  
      90A      0.720646    91A      0.725876    92A      0.730151  
      93A      0.733281    94A      0.737003    95A      0.740299  
      96A      0.746356    97A      0.747797    98A      0.755668  
      99A      0.770627   100A      0.784056   101A      0.787892  
     102A      0.797478   103A      0.807904   104A      0.825570  
     105A      0.836555   106A      0.847558   107A      0.851262  
     108A      0.865641   109A      0.869949   110A      0.871955  
     111A      0.890922   112A      0.897142   113A      0.903553  
     114A      0.914284   115A      0.943834   116A      0.946779  
     117A      0.952088   118A      0.972910   119A      1.010786  
     120A      1.016585   121A      1.033394   122A      1.052697  
     123A      1.087551   124A      1.093070   125A      1.110136  
     126A      1.119175   127A      1.126010   128A      1.128751  
     129A      1.130097   130A      1.143101   131A      1.152976  
     132A      1.167813   133A      1.207845   134A      1.211917  
     135A      1.224079   136A      1.234886   137A      1.237343  
     138A      1.252009   139A      1.260454   140A      1.262308  
     141A      1.275701   142A      1.277568   143A      1.289862  
     144A      1.298175   145A      1.317631   146A      1.323083  
     147A      1.328200   148A      1.348187   149A      1.360067  
     150A      1.363507   151A      1.383530   152A      1.397901  
     153A      1.435224   154A      1.461862   155A      1.478025  
     156A      1.494309   157A      1.512871   158A      1.539723  
     159A      1.575941   160A      1.582136   161A      1.617499  
     162A      1.681262   163A      1.730990   164A      1.738464  
     165A      1.743969   166A      1.753074   167A      1.757274  
     168A      1.763789   169A      1.776250   170A      1.807202  
     171A      1.826967   172A      1.839925   173A      1.863710  
     174A      1.872611   175A      1.877047   176A      1.888540  
     177A      1.892063   178A      1.903474   179A      1.910231  
     180A      1.913520   181A      1.920182   182A      1.926244  
     183A      1.934949   184A      1.942222   185A      1.953467  
     186A      1.962653   187A      1.971460   188A      1.978025  
     189A      1.995207   190A      2.013642   191A      2.041329  
     192A      2.053843   193A      2.066257   194A      2.074415  
     195A      2.077238   196A      2.097734   197A      2.131097  
     198A      2.140400   199A      2.147277   200A      2.149898  
     201A      2.151264   202A      2.156971   203A      2.166512  
     204A      2.171497   205A      2.176891   206A      2.183830  
     207A      2.211633   208A      2.235968   209A      2.263584  
     210A      2.275692   211A      2.291696   212A      2.305210  
     213A      2.316983   214A      2.322147   215A      2.376227  
     216A      2.428673   217A      2.438814   218A      2.478207  
     219A      2.495549   220A      2.498168   221A      2.515973  
     222A      2.540318   223A      2.559556   224A      2.614900  
     225A      2.641689   226A      2.702216   227A      2.732767  
     228A      2.749624   229A      2.769229   230A      2.787859  
     231A      2.796425   232A      2.809687   233A      2.815189  
     234A      2.836278   235A      2.945204   236A      2.965710  
     237A      2.985396   238A      3.006611   239A      3.074131  
     240A      3.091755   241A      3.165110   242A      3.191166  
     243A      3.226684   244A      3.255190   245A      3.280364  
     246A      3.283332   247A      3.300326   248A      3.365839  
     249A      3.584311   250A      3.611269   251A      3.702151  
     252A      3.751817   253A      3.979544   254A      3.997205  
     255A      4.187690   256A      4.251194  

    Final Occupation by Irrep:
              A 
    DOCC [    50 ]

  @RHF Final Energy:  -611.18110046825609

   => Energetics <=

    Nuclear Repulsion Energy =            805.1177369106879951
    One-Electron Energy =               -2429.0385952782967252
    Two-Electron Energy =                1012.7397578993525258
    Total Energy =                       -611.1811004682560906

Computation Completed


Properties will be evaluated at   0.000000,   0.000000,   0.000000 [a0]

Properties computed using the SCF density matrix

  Nuclear Dipole Moment: [e a0]
     X:     1.0923      Y:    -3.5832      Z:     0.9617

  Electronic Dipole Moment: [e a0]
     X:     0.0884      Y:     3.2909      Z:    -0.3026

  Dipole Moment: [e a0]
     X:     1.1807      Y:    -0.2923      Z:     0.6591     Total:     1.3834

  Dipole Moment: [D]
     X:     3.0010      Y:    -0.7430      Z:     1.6753     Total:     3.5163


*** tstop() called on n093 at Fri Jul  2 18:53:18 2021
Module time:
	user time   =     218.75 seconds =       3.65 minutes
	system time =       4.45 seconds =       0.07 minutes
	total time  =         53 seconds =       0.88 minutes
Total time:
	user time   =  111636.73 seconds =    1860.61 minutes
	system time =   11696.15 seconds =     194.94 minutes
	total time  =      34916 seconds =     581.93 minutes
 MINTS: Wrapper to libmints.
   by Justin Turney

   Calculation information:
      Number of threads:                12
      Number of atoms:                  26
      Number of AO shells:             120
      Number of SO shells:             120
      Number of primitives:            368
      Number of atomic orbitals:       270
      Number of basis functions:       256

      Number of irreps:                  1
      Integral cutoff                 0.00e+00
      Number of functions per irrep: [ 256 ]

 OEINTS: Overlap, kinetic, potential, dipole, and quadrupole integrals
         stored in file 35.

      Computing two-electron integrals...done
      Computed 541043340 non-zero two-electron integrals.
        Stored in file 33.


*** tstart() called on n093
*** at Fri Jul  2 18:55:38 2021


	Wfn Parameters:
	--------------------
	Wavefunction         = CCSD
	Number of irreps     = 1
	Number of MOs        = 256
	Number of active MOs = 242
	AO-Basis             = NONE
	Semicanonical        = false
	Reference            = RHF
	Print Level          = 1

	IRREP	# MOs	# FZDC	# DOCC	# SOCC	# VIRT	# FZVR
	-----	-----	------	------	------	------	------
	 A	   256	    14	    36	    0	    206	    0
	Transforming integrals...
	IWL integrals will be deleted.
	(OO|OO)...
	Presorting SO-basis two-electron integrals.
	Sorting File: SO Ints (nn|nn) nbuckets = 1
	Transforming the one-electron integrals and constructing Fock matrices
	Starting first half-transformation.
	Sorting half-transformed integrals.
	First half integral transformation complete.
	Starting second half-transformation.
	Two-electron integral transformation complete.
	(OO|OV)...
	Starting second half-transformation.
	Two-electron integral transformation complete.
	(OO|VV)...
	Starting second half-transformation.
	Two-electron integral transformation complete.
	(OV|OO)...
	Starting first half-transformation.
	Sorting half-transformed integrals.
	First half integral transformation complete.
	Starting second half-transformation.
	Two-electron integral transformation complete.
	(OV|OV)...
	Starting second half-transformation.
	Two-electron integral transformation complete.
	(OV|VV)...
	Starting second half-transformation.
	Two-electron integral transformation complete.
	(VV|OO)...
	Starting first half-transformation.
	Sorting half-transformed integrals.
	First half integral transformation complete.
	Starting second half-transformation.
	Two-electron integral transformation complete.
	(VV|OV)...
	Starting second half-transformation.
	Two-electron integral transformation complete.
	(VV|VV)...
	Starting second half-transformation.
	Two-electron integral transformation complete.
	Frozen core energy     =   -896.49616417790708

	Size of irrep 0 of <ab|cd> integrals:   1800.814 (MW) /  14406.513 (MB)
	Total:                                  1800.814 (MW) /  14406.513 (MB)

	Size of irrep 0 of <ia|bc> integrals:    314.705 (MW) /   2517.643 (MB)
	Total:                                   314.705 (MW) /   2517.643 (MB)

	Size of irrep 0 of tijab amplitudes:      54.997 (MW) /    439.976 (MB)
	Total:                                    54.997 (MW) /    439.976 (MB)

	Nuclear Rep. energy          =    805.11773691068800
	SCF energy                   =   -611.18110046825609
	One-electron energy          =   -988.36798870143707
	Two-electron energy          =    468.56531550037010
	Reference energy             =   -611.18110046828599

*** tstop() called on n093 at Fri Jul  2 18:59:38 2021
Module time:
	user time   =     476.77 seconds =       7.95 minutes
	system time =     116.48 seconds =       1.94 minutes
	total time  =        240 seconds =       4.00 minutes
Total time:
	user time   =  112248.01 seconds =    1870.80 minutes
	system time =   11819.45 seconds =     196.99 minutes
	total time  =      35296 seconds =     588.27 minutes
            **************************
            *                        *
            *        CCENERGY        *
            *                        *
            **************************

    Nuclear Rep. energy (wfn)     =  805.117736910687995
    SCF energy          (wfn)     = -611.181100468256091
    Reference energy    (file100) = -611.181100468285990

    Input parameters:
    -----------------
    Wave function   =     CCSD
    Reference wfn   =     RHF
    Brueckner       =     No
    Memory (Mbytes) =     700000.0
    Maxiter         =     50
    R_Convergence   =     1.0e-07
    E_Convergence   =     1.0e-08
    Restart         =     Yes
    DIIS            =     Yes
    AO Basis        =     NONE
    ABCD            =     NEW
    Cache Level     =     2
    Cache Type      =     LOW
    Print Level     =     1
    Num. of threads =     12
    # Amps to Print =     10
    Print MP2 Amps? =     No
    Analyze T2 Amps =     No
    Print Pair Ener =     No
    Local CC        =     No
    SCS-MP2         =     False
    SCSN-MP2        =     False
    SCS-CCSD        =     False

MP2 correlation energy -1.9401363863744587
                Solving CC Amplitude Equations
                ------------------------------
  Iter             Energy              RMS        T1Diag      D1Diag    New D1Diag    D2Diag
  ----     ---------------------    ---------   ----------  ----------  ----------   --------
     0        -1.940136386374459    0.000e+00    0.000000    0.000000    0.000000    0.174439
     1        -1.949651628296758    1.367e-01    0.009320    0.028265    0.028265    0.166940
     2        -2.001598258383810    4.924e-02    0.009434    0.026535    0.026535    0.179015
     3        -2.014833347941977    2.187e-02    0.011047    0.034328    0.034328    0.183905
     4        -2.014917228636082    6.944e-03    0.011253    0.034949    0.034949    0.185499
     5        -2.015000307253512    3.151e-03    0.011380    0.036173    0.036173    0.186477
     6        -2.015064847114077    8.043e-04    0.011402    0.036446    0.036446    0.186672
     7        -2.015036284215925    2.658e-04    0.011403    0.036505    0.036505    0.186693
     8        -2.015028605512782    8.091e-05    0.011405    0.036536    0.036536    0.186699
     9        -2.015031809780110    2.934e-05    0.011406    0.036546    0.036546    0.186699
    10        -2.015029642053970    1.396e-05    0.011406    0.036552    0.036552    0.186698
    11        -2.015029706540780    5.188e-06    0.011406    0.036554    0.036554    0.186697
    12        -2.015029469317801    2.116e-06    0.011407    0.036554    0.036554    0.186697
    13        -2.015029406436367    8.690e-07    0.011407    0.036554    0.036554    0.186697
    14        -2.015029382089484    4.517e-07    0.011407    0.036554    0.036554    0.186697
    15        -2.015029373036877    2.488e-07    0.011407    0.036554    0.036554    0.186697
    16        -2.015029370809689    1.120e-07    0.011407    0.036554    0.036554    0.186697
    17        -2.015029371878013    4.529e-08    0.011407    0.036554    0.036554    0.186697

    Iterations converged.


    Largest TIA Amplitudes:
             24   4         0.0250743300
             19   1         0.0218795275
             31   4        -0.0183967900
             35  46         0.0148974974
             29   1         0.0137411966
             24  17        -0.0129981823
             33  44         0.0128918035
             32   0        -0.0117514431
             19  16         0.0115625963
             31  37         0.0113024890

    Largest TIjAb Amplitudes:
     35  35   4   4        -0.0800314209
     32  32   0   0        -0.0773839786
     34  34   1   1        -0.0492064763
     33  33   2   2        -0.0473656681
     33  34   1   1        -0.0371898237
     34  33   1   1        -0.0371898237
     33  35   4   2        -0.0344532681
     35  33   2   4        -0.0344532681
     32  34   1   0        -0.0341383266
     34  32   0   1        -0.0341383266

    SCF energy       (wfn)                    = -611.181100468256091
    Reference energy (file100)                = -611.181100468285990

    Opposite-spin MP2 correlation energy      =   -1.419524101039257
    Same-spin MP2 correlation energy          =   -0.520612285335202
    Singles MP2 correlation energy            =   -0.000000000000000
    MP2 correlation energy                    =   -1.940136386374459
      * MP2 total energy                      = -613.121236854660424

    Opposite-spin CCSD correlation energy     =   -1.550663948383940
    Same-spin CCSD correlation energy         =   -0.464365423494073
    Singles CCSD correlation energy           =    0.000000000000000
    CCSD correlation energy                   =   -2.015029371878013
      * CCSD total energy                     = -613.196129840163962

@@@ Total Run Time: 2355.213815689087
    Psi4 stopped on: Friday, 02 July 2021 07:31PM
    Psi4 wall time for execution: 10:20:19.02

*** Psi4 exiting successfully. Buy a developer a beer!
